
  ___ ___ ___ _ _ _  
 |   |   |_  | | | | 
 | | | | | . | | | | 
 |__ |  _|___|_____|  20.1.0
 |___|_|             

User:   jngwng01@n716028
Date:   Mon Sep  6 19:49:56 2021
Arch:   x86_64
Pid:    12719
Python: 3.8.5
gpaw:   /uls/7/gpaw-20.1.0/lib/python3.8/site-packages/gpaw-20.1.0-py3.8-linux-x86_64.egg/gpaw
_gpaw:  /uls/7/gpaw-20.1.0/lib/python3.8/site-packages/gpaw-20.1.0-py3.8-linux-x86_64.egg/
        _gpaw.cpython-38-x86_64-linux-gnu.so
ase:    /uls/7/gpaw-20.1.0/lib/python3.8/site-packages/ase-3.20.1-py3.8.egg/ase (version 3.20.1)
numpy:  /uls/7/gpaw-20.1.0/lib/python3.8/site-packages/numpy (version 1.19.2)
scipy:  /uls/7/gpaw-20.1.0/lib/python3.8/site-packages/scipy-1.5.2-py3.8-linux-x86_64.egg/scipy (version 1.5.2)
libxc:  4.3.4
units:  Angstrom and eV
cores: 32
OMP_NUM_THREADS: 1

Input parameters:
  convergence: {density: 0.0001,
                eigenstates: 1e-07}
  kpts: [5 5 1]
  mode: {ecut: 500.0,
         gammacentered: False,
         name: pw}
  occupations: {name: fermi-dirac,
                width: 0.05}
  random: True
  xc: PBE

System changes: positions, numbers, cell, pbc, initial_charges, initial_magmoms 

Initialize ...

Li-setup:
  name: Lithium
  id: 830b4218f175192f93f959cfc0aad614
  Z: 3
  valence: 1
  core: 2
  charge: 0.0
  file: /uls/7/gpaw-20.1.0/setups/gpaw-setups-0.9.20000/Li.PBE.gz
  compensation charges: gauss, rc=0.33, lmax=2
  cutoffs: 1.91(filt), 2.55(core),
  valence states:
                energy  radius
    2s(1.00)    -2.874   1.058
    2p(0.00)    -1.090   1.058
    *s          24.337   1.058

  Using partial waves for Li as LCAO basis

N-setup:
  name: Nitrogen
  id: f7500608b86eaa90eef8b1d9a670dc53
  Z: 7
  valence: 5
  core: 2
  charge: 0.0
  file: /uls/7/gpaw-20.1.0/setups/gpaw-setups-0.9.20000/N.PBE.gz
  compensation charges: gauss, rc=0.18, lmax=2
  cutoffs: 1.11(filt), 0.96(core),
  valence states:
                energy  radius
    2s(2.00)   -18.583   0.603
    2p(3.00)    -7.089   0.529
    *s           8.629   0.603
    *p          20.123   0.529
    *d           0.000   0.577

  Using partial waves for N as LCAO basis

Reference energy: -33644.147259

Spin-paired calculation

Occupation numbers:
  Fermi-Dirac: width=0.0500 eV

Convergence criteria:
  Maximum total energy change: 0.0005 eV / electron
  Maximum integral of absolute density change: 0.0001 electrons
  Maximum integral of absolute eigenstate change: 1e-07 eV^2
  Maximum number of iterations: 333

Symmetries present (total): 1

  ( 1  0  0)
  ( 0  1  0)
  ( 0  0  1)

25 k-points: 5 x 5 x 1 Monkhorst-Pack grid
13 k-points in the irreducible part of the Brillouin zone
       k-points in crystal coordinates                weights
   0:     0.00000000    0.00000000    0.00000000          1/25
   1:     0.00000000    0.20000000    0.00000000          2/25
   2:     0.00000000    0.40000000    0.00000000          2/25
   3:     0.20000000   -0.40000000    0.00000000          2/25
   4:     0.20000000   -0.20000000    0.00000000          2/25
   5:     0.20000000    0.00000000    0.00000000          2/25
   6:     0.20000000    0.20000000    0.00000000          2/25
   7:     0.20000000    0.40000000    0.00000000          2/25
   8:     0.40000000   -0.40000000    0.00000000          2/25
   9:     0.40000000   -0.20000000    0.00000000          2/25
          ...
  12:     0.40000000    0.40000000    0.00000000          2/25

Wave functions: Plane wave expansion
  Cutoff energy: 500.000 eV
  Number of coefficients (min, max): 32263, 32394
  Pulay-stress correction: 0.000000 eV/Ang^3 (de/decut=0.000000)
  Using FFTW library
  ScaLapack parameters: grid=1x1, blocksize=None
  Wavefunction extrapolation:
    Improved wavefunction reuse through dual PAW basis 

Eigensolver
   Davidson(niter=2, smin=None, normalize=True) 

Densities:
  Coarse grid: 40*40*160 grid
  Fine grid: 80*80*320 grid
  Total Charge: 0.000000 

Density mixing:
  Method: separate
  Backend: pulay
  Linear mixing parameter: 0.05
  Mixing with 5 old densities
  Damping of long wave oscillations: 50 

Hamiltonian:
  XC and Coulomb potentials evaluated on a 80*80*320 grid
  Using the PBE Exchange-Correlation functional
 

XC parameters: PBE with 2 nearest neighbor stencil

Memory estimate:
  Process memory now: 239.18 MiB
  Calculator: 132.62 MiB
    Density: 28.32 MiB
      Arrays: 12.70 MiB
      Localized functions: 10.74 MiB
      Mixer: 4.88 MiB
    Hamiltonian: 8.56 MiB
      Arrays: 8.30 MiB
      XC: 0.00 MiB
      Poisson: 0.00 MiB
      vbar: 0.26 MiB
    Wavefunctions: 95.74 MiB
      Arrays psit_nG: 40.53 MiB
      Eigensolver: 44.03 MiB
      Projections: 0.14 MiB
      Projectors: 1.05 MiB
      PW-descriptor: 9.98 MiB

Total number of cores used: 32
Parallelization over k-points: 8
Domain decomposition: 1 x 1 x 4
                      2 x 2 x 8 (xc only)

Number of atoms: 65
Number of atomic orbitals: 260
Number of bands in calculation: 82
Number of valence electrons: 129
Bands to converge: occupied

... initialized

Initializing position-dependent things.

Density initialized from atomic densities
Creating initial wave functions:
  82 bands from LCAO basis set

                                         
                                         
                                         
                                         
                       Li                
                                         
           Li      Li                    
              N   Li   N  Li             
             Li      Li                  
              LiN   Li LiN  Li           
                                         
           Li   Li Li    Li              
              N   Li   N  Li             
             Li      Li                  
              LiN   Li LiN  Li           
                                         
           Li N Li Li  N Li              
                  Li      Li             
             Li N    Li  N               
              Li    Li Li   Li           
                                         
           Li N Li Li  N Li              
                  Li      Li             
             Li N    Li  N               
              Li    Li Li   Li           
                                         
                Li       Li              
                                         
                                         
                                         
                                         

Positions:
   0 Li     1.753189    1.012426    1.530029    ( 0.0000,  0.0000,  0.0000)
   1 Li    -0.000191    4.049369    1.530029    ( 0.0000,  0.0000,  0.0000)
   2 Li     5.259899    1.012426    1.530029    ( 0.0000,  0.0000,  0.0000)
   3 Li     3.506519    4.049369    1.530029    ( 0.0000,  0.0000,  0.0000)
   4 Li     1.753084    1.012487   13.291285    ( 0.0000,  0.0000,  0.0000)
   5 Li    -0.000296    4.049430   13.291285    ( 0.0000,  0.0000,  0.0000)
   6 Li     5.259794    1.012487   13.291285    ( 0.0000,  0.0000,  0.0000)
   7 Li     3.506414    4.049430   13.291285    ( 0.0000,  0.0000,  0.0000)
   8 Li     3.506412    0.000213   15.411652    ( 0.0000,  0.0000,  0.0000)
   9 Li     1.753032    3.037156   15.411652    ( 0.0000,  0.0000,  0.0000)
  10 Li     7.013122    0.000213   15.411652    ( 0.0000,  0.0000,  0.0000)
  11 Li     5.259742    3.037156   15.411652    ( 0.0000,  0.0000,  0.0000)
  12 Li    -0.000315    2.024821   15.411652    ( 0.0000,  0.0000,  0.0000)
  13 Li    -1.753695    5.061764   15.411652    ( 0.0000,  0.0000,  0.0000)
  14 Li     3.506395    2.024821   15.411652    ( 0.0000,  0.0000,  0.0000)
  15 Li     1.753015    5.061764   15.411652    ( 0.0000,  0.0000,  0.0000)
  16 Li     3.506465    0.000182    3.465092    ( 0.0000,  0.0000,  0.0000)
  17 Li     1.753085    3.037125    3.465092    ( 0.0000,  0.0000,  0.0000)
  18 Li     7.013175    0.000182    3.465092    ( 0.0000,  0.0000,  0.0000)
  19 Li     5.259795    3.037125    3.465092    ( 0.0000,  0.0000,  0.0000)
  20 Li    -0.000262    2.024791    3.465092    ( 0.0000,  0.0000,  0.0000)
  21 Li    -1.753642    5.061734    3.465092    ( 0.0000,  0.0000,  0.0000)
  22 Li     3.506448    2.024791    3.465092    ( 0.0000,  0.0000,  0.0000)
  23 Li     1.753068    5.061734    3.465092    ( 0.0000,  0.0000,  0.0000)
  24 Li     1.753084    1.012487    5.431887    ( 0.0000,  0.0000,  0.0000)
  25 Li    -0.000296    4.049430    5.431887    ( 0.0000,  0.0000,  0.0000)
  26 Li     5.259794    1.012487    5.431887    ( 0.0000,  0.0000,  0.0000)
  27 Li     3.506414    4.049430    5.431887    ( 0.0000,  0.0000,  0.0000)
  28 Li     3.506429    0.000182    7.378027    ( 0.0000,  0.0000,  0.0000)
  29 Li     1.753049    3.037125    7.378027    ( 0.0000,  0.0000,  0.0000)
  30 Li     7.013139    0.000182    7.378027    ( 0.0000,  0.0000,  0.0000)
  31 Li     5.259759    3.037125    7.378027    ( 0.0000,  0.0000,  0.0000)
  32 Li    -0.000297    2.024791    7.378027    ( 0.0000,  0.0000,  0.0000)
  33 Li    -1.753677    5.061734    7.378027    ( 0.0000,  0.0000,  0.0000)
  34 Li     3.506413    2.024791    7.378027    ( 0.0000,  0.0000,  0.0000)
  35 Li     1.753033    5.061734    7.378027    ( 0.0000,  0.0000,  0.0000)
  36 Li     1.753084    1.012487    9.352306    ( 0.0000,  0.0000,  0.0000)
  37 Li    -0.000296    4.049430    9.352306    ( 0.0000,  0.0000,  0.0000)
  38 Li     5.259794    1.012487    9.352306    ( 0.0000,  0.0000,  0.0000)
  39 Li     3.506414    4.049430    9.352306    ( 0.0000,  0.0000,  0.0000)
  40 Li     3.506429    0.000182   11.319700    ( 0.0000,  0.0000,  0.0000)
  41 Li     1.753049    3.037125   11.319700    ( 0.0000,  0.0000,  0.0000)
  42 Li     7.013139    0.000182   11.319700    ( 0.0000,  0.0000,  0.0000)
  43 Li     5.259759    3.037125   11.319700    ( 0.0000,  0.0000,  0.0000)
  44 Li    -0.000297    2.024791   11.319700    ( 0.0000,  0.0000,  0.0000)
  45 Li    -1.753677    5.061734   11.319700    ( 0.0000,  0.0000,  0.0000)
  46 Li     3.506413    2.024791   11.319700    ( 0.0000,  0.0000,  0.0000)
  47 Li     1.753033    5.061734   11.319700    ( 0.0000,  0.0000,  0.0000)
  48 N      1.753084    1.012487    3.439048    ( 0.0000,  0.0000,  0.0000)
  49 N     -0.000296    4.049430    3.439048    ( 0.0000,  0.0000,  0.0000)
  50 N      5.259794    1.012487    3.439048    ( 0.0000,  0.0000,  0.0000)
  51 N      3.506414    4.049430    3.439048    ( 0.0000,  0.0000,  0.0000)
  52 N      1.753031    1.012517    7.360963    ( 0.0000,  0.0000,  0.0000)
  53 N     -0.000349    4.049460    7.360963    ( 0.0000,  0.0000,  0.0000)
  54 N      5.259741    1.012517    7.360963    ( 0.0000,  0.0000,  0.0000)
  55 N      3.506361    4.049460    7.360963    ( 0.0000,  0.0000,  0.0000)
  56 N      1.753031    1.012517   11.296051    ( 0.0000,  0.0000,  0.0000)
  57 N     -0.000349    4.049460   11.296051    ( 0.0000,  0.0000,  0.0000)
  58 N      5.259741    1.012517   11.296051    ( 0.0000,  0.0000,  0.0000)
  59 N      3.506361    4.049460   11.296051    ( 0.0000,  0.0000,  0.0000)
  60 N      1.753031    1.012517   15.214673    ( 0.0000,  0.0000,  0.0000)
  61 N     -0.000349    4.049460   15.214673    ( 0.0000,  0.0000,  0.0000)
  62 N      5.259741    1.012517   15.214673    ( 0.0000,  0.0000,  0.0000)
  63 N      3.506361    4.049460   15.214673    ( 0.0000,  0.0000,  0.0000)
  64 Li     3.543059    4.031475   17.224786    ( 0.0000,  0.0000,  0.0000)

Unit cell:
           periodic     x           y           z      points  spacing
  1. axis:    yes    7.013420    0.000000    0.000000    40     0.1518
  2. axis:    yes   -3.506760    6.073886    0.000000    40     0.1518
  3. axis:    yes    0.000000    0.000000   29.936001   160     0.1871

  Lengths:   7.013420   7.013520  29.936001
  Angles:   90.000000  90.000000 120.000000

Effective grid spacing dv^(1/3) = 0.1708

                     log10-error:    total        iterations:
           time      wfs    density  energy       fermi  poisson
iter:   1  19:50:40                -275.642682    4             
iter:   2  19:50:58  -0.99  -0.51  -263.037163    5             
iter:   3  19:51:15  -0.41  -0.56  -276.243493    37            
iter:   4  19:51:33  -1.88  -0.53  -251.528411    34            
iter:   5  19:51:51  -2.70  -0.71  -249.393641    3             
iter:   6  19:52:09  -1.40  -0.72  -245.344277    5             
iter:   7  19:52:28  -1.32  -0.78  -239.096431    27            
iter:   8  19:52:46  -1.69  -0.89  -237.706437    32            
iter:   9  19:53:04  -2.17  -0.96  -237.021607    34            
iter:  10  19:53:22  -1.93  -0.94  -243.199068    34            
iter:  11  19:53:40  -1.64  -0.79  -238.854440    33            
iter:  12  19:53:54  -1.72  -0.93  -236.970707    3             
iter:  13  19:54:12  -2.37  -1.34  -235.760800    5             
iter:  14  19:54:30  -3.09  -1.51  -235.589772    2             
iter:  15  19:54:48  -3.06  -1.51  -234.811689    5             
iter:  16  19:55:06  -2.65  -1.52  -234.774473    4             
iter:  17  19:55:24  -2.73  -1.42  -234.902726    5             
iter:  18  19:55:43  -3.07  -1.53  -234.498611    4             
iter:  19  19:56:01  -2.98  -1.58  -234.387555    4             
iter:  20  19:56:19  -2.96  -1.68  -234.478731    4             
iter:  21  19:56:37  -3.12  -1.59  -234.527604    32            
iter:  22  19:56:55  -3.42  -1.76  -234.287956    4             
iter:  23  19:57:13  -4.08  -2.08  -234.271930    3             
iter:  24  19:57:31  -3.69  -2.06  -234.273245    4             
iter:  25  19:57:49  -4.16  -2.06  -234.262556    3             
iter:  26  19:58:07  -3.79  -2.13  -234.300217    3             
iter:  27  19:58:25  -4.13  -2.16  -234.279841    2             
iter:  28  19:58:44  -4.31  -2.34  -234.259184    3             
iter:  29  19:59:02  -5.16  -2.67  -234.258282    2             
iter:  30  19:59:20  -5.14  -2.72  -234.262549    3             
iter:  31  19:59:38  -4.91  -2.73  -234.254738    3             
iter:  32  19:59:56  -5.86  -2.73  -234.256566    3             
iter:  33  20:00:14  -6.31  -3.08  -234.256410    2             
iter:  34  20:00:32  -6.11  -3.09  -234.256398    2             
iter:  35  20:00:50  -6.28  -3.13  -234.256577    3             
iter:  36  20:01:08  -6.87  -3.37  -234.256555    2             
iter:  37  20:01:27  -5.99  -3.41  -234.257589    2             
iter:  38  20:01:45  -7.33  -3.44  -234.256883    2             
iter:  39  20:02:03  -6.56  -3.59  -234.256915    2             
iter:  40  20:02:21  -8.04  -3.63  -234.257018    2             
iter:  41  20:02:39  -7.03  -3.64  -234.256823    2             
iter:  42  20:02:57  -6.96  -3.64  -234.256697    2             
iter:  43  20:03:15  -7.19  -3.72  -234.256678    2             
iter:  44  20:03:33  -7.47  -3.87  -234.256772    2             
iter:  45  20:03:51  -7.29  -4.12  -234.256904    2             

Converged after 45 iterations.

Dipole moment: (-1.276040, 2.128112, -11.344348) |e|*Ang

Energy contributions relative to reference atoms: (reference = -33644.147259)

Kinetic:       +260.493464
Potential:     -191.865168
External:        +0.000000
XC:            -301.533789
Entropy (-ST):   -0.090672
Local:           -1.306075
--------------------------
Free energy:   -234.302240
Extrapolated:  -234.256904

Fermi level: -0.27854

Showing only first 2 kpts
 Kpt  Band  Eigenvalues  Occupancy
  0    62     -0.41675    0.07526
  0    63     -0.09104    0.00184
  0    64     -0.09100    0.00184
  0    65      0.23001    0.00000

  1    62     -0.45354    0.15531
  1    63     -0.34160    0.12468
  1    64     -0.21121    0.03303
  1    65      0.36665    0.00000


No gap

Forces in eV/Ang:
  0 Li   -0.00007    0.00005   -0.03769
  1 Li   -0.00007    0.00005   -0.03769
  2 Li   -0.00007    0.00005   -0.03769
  3 Li   -0.00007    0.00005   -0.03771
  4 Li    0.00045   -0.00038    0.02953
  5 Li   -0.00145   -0.00026    0.02954
  6 Li   -0.00039    0.00133    0.02954
  7 Li    0.00078   -0.00038    0.02585
  8 Li   -0.00118    0.00050   -0.05034
  9 Li   -0.27458   -0.15512   -0.35650
 10 Li   -0.00333    0.31713   -0.35973
 11 Li    0.29618   -0.17143   -0.40205
 12 Li   -0.00117    0.00059   -0.05034
 13 Li    0.28766    0.17027   -0.38861
 14 Li   -0.00385   -0.33215   -0.38508
 15 Li   -0.26708    0.15395   -0.34454
 16 Li    0.00001   -0.00012   -0.03429
 17 Li   -0.00006   -0.00015   -0.03438
 18 Li    0.00001   -0.00004   -0.03438
 19 Li    0.00007   -0.00015   -0.03438
 20 Li   -0.00007    0.00007   -0.03429
 21 Li   -0.00001    0.00011   -0.03438
 22 Li   -0.00007   -0.00000   -0.03438
 23 Li   -0.00014    0.00011   -0.03438
 24 Li   -0.00002    0.00001   -0.02787
 25 Li   -0.00002    0.00001   -0.02787
 26 Li   -0.00002    0.00001   -0.02787
 27 Li   -0.00001    0.00001   -0.02813
 28 Li   -0.00007    0.00001    0.01460
 29 Li   -0.00094   -0.00049    0.01357
 30 Li   -0.00007    0.00101    0.01357
 31 Li    0.00079   -0.00049    0.01355
 32 Li   -0.00015    0.00020    0.01460
 33 Li    0.00071    0.00070    0.01355
 34 Li   -0.00015   -0.00080    0.01355
 35 Li   -0.00102    0.00070    0.01358
 36 Li   -0.00007    0.00004    0.00778
 37 Li    0.00000    0.00003    0.00778
 38 Li   -0.00004   -0.00003    0.00778
 39 Li   -0.00012    0.00005    0.00519
 40 Li   -0.00010    0.00003   -0.01486
 41 Li   -0.01156   -0.00666   -0.03015
 42 Li   -0.00003    0.01330   -0.03010
 43 Li    0.01142   -0.00662   -0.02948
 44 Li   -0.00016    0.00020   -0.01486
 45 Li    0.01136    0.00682   -0.02967
 46 Li   -0.00013   -0.01308   -0.02972
 47 Li   -0.01166    0.00684   -0.03035
 48 N    -0.00018    0.00018    0.03791
 49 N    -0.00018    0.00017    0.03791
 50 N    -0.00018    0.00017    0.03791
 51 N    -0.00018    0.00017    0.03818
 52 N    -0.00004   -0.00005    0.04044
 53 N    -0.00006   -0.00005    0.04044
 54 N    -0.00005   -0.00003    0.04044
 55 N    -0.00004   -0.00005    0.04701
 56 N    -0.00013    0.00004    0.02304
 57 N     0.00036    0.00000    0.02308
 58 N     0.00009   -0.00040    0.02307
 59 N    -0.00042    0.00014    0.08953
 60 N     0.00003   -0.00104    0.25047
 61 N    -0.01275   -0.00018    0.25101
 62 N    -0.00560    0.01045    0.25092
 63 N     0.02517   -0.01225    1.79677
 64 Li   -0.04027    0.01974   -0.46085

System changes: positions 

Initializing position-dependent things.

Density initialized from wave functions
                                         
                                         
                                         
                                         
                       Li                
                                         
           Li      Li                    
              N   Li   N  Li             
             Li      Li                  
              LiN   Li LiN  Li           
                                         
           Li   Li Li    Li              
              N   Li   N  Li             
             Li      Li                  
              LiN   Li LiN  Li           
                                         
           Li N Li Li  N Li              
                  Li      Li             
             Li N    Li  N               
              Li    Li Li   Li           
                                         
           Li N Li Li  N Li              
                  Li      Li             
             Li N    Li  N               
              Li    Li Li   Li           
                                         
                Li       Li              
                                         
                                         
                                         
                                         

Positions:
   0 Li     1.753189    1.012426    1.530029    ( 0.0000,  0.0000,  0.0000)
   1 Li    -0.000191    4.049369    1.530029    ( 0.0000,  0.0000,  0.0000)
   2 Li     5.259899    1.012426    1.530029    ( 0.0000,  0.0000,  0.0000)
   3 Li     3.506519    4.049369    1.530029    ( 0.0000,  0.0000,  0.0000)
   4 Li     1.753090    1.012481   13.291707    ( 0.0000,  0.0000,  0.0000)
   5 Li    -0.000317    4.049426   13.291707    ( 0.0000,  0.0000,  0.0000)
   6 Li     5.259788    1.012506   13.291707    ( 0.0000,  0.0000,  0.0000)
   7 Li     3.506425    4.049424   13.291654    ( 0.0000,  0.0000,  0.0000)
   8 Li     3.506395    0.000220   15.410933    ( 0.0000,  0.0000,  0.0000)
   9 Li     1.749109    3.034940   15.406559    ( 0.0000,  0.0000,  0.0000)
  10 Li     7.013074    0.004743   15.406513    ( 0.0000,  0.0000,  0.0000)
  11 Li     5.263973    3.034707   15.405908    ( 0.0000,  0.0000,  0.0000)
  12 Li    -0.000331    2.024830   15.410933    ( 0.0000,  0.0000,  0.0000)
  13 Li    -1.749585    5.064197   15.406100    ( 0.0000,  0.0000,  0.0000)
  14 Li     3.506340    2.020076   15.406151    ( 0.0000,  0.0000,  0.0000)
  15 Li     1.749200    5.063964   15.406730    ( 0.0000,  0.0000,  0.0000)
  16 Li     3.506465    0.000182    3.465092    ( 0.0000,  0.0000,  0.0000)
  17 Li     1.753085    3.037125    3.465092    ( 0.0000,  0.0000,  0.0000)
  18 Li     7.013175    0.000182    3.465092    ( 0.0000,  0.0000,  0.0000)
  19 Li     5.259795    3.037125    3.465092    ( 0.0000,  0.0000,  0.0000)
  20 Li    -0.000262    2.024791    3.465092    ( 0.0000,  0.0000,  0.0000)
  21 Li    -1.753642    5.061734    3.465092    ( 0.0000,  0.0000,  0.0000)
  22 Li     3.506448    2.024791    3.465092    ( 0.0000,  0.0000,  0.0000)
  23 Li     1.753068    5.061734    3.465092    ( 0.0000,  0.0000,  0.0000)
  24 Li     1.753084    1.012487    5.431887    ( 0.0000,  0.0000,  0.0000)
  25 Li    -0.000296    4.049430    5.431887    ( 0.0000,  0.0000,  0.0000)
  26 Li     5.259794    1.012487    5.431887    ( 0.0000,  0.0000,  0.0000)
  27 Li     3.506414    4.049430    5.431887    ( 0.0000,  0.0000,  0.0000)
  28 Li     3.506429    0.000182    7.378027    ( 0.0000,  0.0000,  0.0000)
  29 Li     1.753049    3.037125    7.378027    ( 0.0000,  0.0000,  0.0000)
  30 Li     7.013139    0.000182    7.378027    ( 0.0000,  0.0000,  0.0000)
  31 Li     5.259759    3.037125    7.378027    ( 0.0000,  0.0000,  0.0000)
  32 Li    -0.000297    2.024791    7.378027    ( 0.0000,  0.0000,  0.0000)
  33 Li    -1.753677    5.061734    7.378027    ( 0.0000,  0.0000,  0.0000)
  34 Li     3.506413    2.024791    7.378027    ( 0.0000,  0.0000,  0.0000)
  35 Li     1.753033    5.061734    7.378027    ( 0.0000,  0.0000,  0.0000)
  36 Li     1.753083    1.012487    9.352417    ( 0.0000,  0.0000,  0.0000)
  37 Li    -0.000296    4.049430    9.352417    ( 0.0000,  0.0000,  0.0000)
  38 Li     5.259793    1.012486    9.352417    ( 0.0000,  0.0000,  0.0000)
  39 Li     3.506412    4.049430    9.352380    ( 0.0000,  0.0000,  0.0000)
  40 Li     3.506428    0.000183   11.319488    ( 0.0000,  0.0000,  0.0000)
  41 Li     1.752884    3.037030   11.319269    ( 0.0000,  0.0000,  0.0000)
  42 Li     7.013139    0.000372   11.319270    ( 0.0000,  0.0000,  0.0000)
  43 Li     5.259923    3.037031   11.319279    ( 0.0000,  0.0000,  0.0000)
  44 Li    -0.000300    2.024794   11.319488    ( 0.0000,  0.0000,  0.0000)
  45 Li    -1.753515    5.061831   11.319276    ( 0.0000,  0.0000,  0.0000)
  46 Li     3.506411    2.024604   11.319276    ( 0.0000,  0.0000,  0.0000)
  47 Li     1.752866    5.061832   11.319267    ( 0.0000,  0.0000,  0.0000)
  48 N      1.753084    1.012487    3.439048    ( 0.0000,  0.0000,  0.0000)
  49 N     -0.000296    4.049430    3.439048    ( 0.0000,  0.0000,  0.0000)
  50 N      5.259794    1.012487    3.439048    ( 0.0000,  0.0000,  0.0000)
  51 N      3.506414    4.049430    3.439048    ( 0.0000,  0.0000,  0.0000)
  52 N      1.753031    1.012517    7.360963    ( 0.0000,  0.0000,  0.0000)
  53 N     -0.000349    4.049460    7.360963    ( 0.0000,  0.0000,  0.0000)
  54 N      5.259741    1.012517    7.360963    ( 0.0000,  0.0000,  0.0000)
  55 N      3.506361    4.049460    7.360963    ( 0.0000,  0.0000,  0.0000)
  56 N      1.753029    1.012517   11.296380    ( 0.0000,  0.0000,  0.0000)
  57 N     -0.000344    4.049460   11.296380    ( 0.0000,  0.0000,  0.0000)
  58 N      5.259742    1.012511   11.296380    ( 0.0000,  0.0000,  0.0000)
  59 N      3.506355    4.049462   11.297330    ( 0.0000,  0.0000,  0.0000)
  60 N      1.753031    1.012502   15.218251    ( 0.0000,  0.0000,  0.0000)
  61 N     -0.000531    4.049458   15.218259    ( 0.0000,  0.0000,  0.0000)
  62 N      5.259661    1.012666   15.218258    ( 0.0000,  0.0000,  0.0000)
  63 N      3.506721    4.049285   15.240341    ( 0.0000,  0.0000,  0.0000)
  64 Li     3.542484    4.031757   17.218202    ( 0.0000,  0.0000,  0.0000)

Unit cell:
           periodic     x           y           z      points  spacing
  1. axis:    yes    7.013420    0.000000    0.000000    40     0.1518
  2. axis:    yes   -3.506760    6.073886    0.000000    40     0.1518
  3. axis:    yes    0.000000    0.000000   29.936001   160     0.1871

  Lengths:   7.013420   7.013520  29.936001
  Angles:   90.000000  90.000000 120.000000

Effective grid spacing dv^(1/3) = 0.1708

                     log10-error:    total        iterations:
           time      wfs    density  energy       fermi  poisson
iter:   1  20:04:27  -3.27         -234.337380    4             
iter:   2  20:04:45  -3.93  -2.24  -234.434648    5             
iter:   3  20:05:03  -4.65  -2.08  -234.342918    4             
iter:   4  20:05:21  -4.52  -2.46  -234.327874    4             
iter:   5  20:05:39  -4.51  -2.34  -234.325914    3             
iter:   6  20:05:57  -5.59  -3.01  -234.324180    3             
iter:   7  20:06:15  -5.24  -3.35  -234.323506    3             
iter:   8  20:06:33  -5.85  -3.24  -234.325315    3             
iter:   9  20:06:51  -5.71  -3.30  -234.324924    3             
iter:  10  20:07:09  -6.72  -3.56  -234.324426    2             
iter:  11  20:07:27  -6.97  -3.87  -234.324349    2             
iter:  12  20:07:45  -7.00  -4.02  -234.324228    2             
iter:  13  20:08:03  -7.81  -4.30  -234.324198    2             

Converged after 13 iterations.

Dipole moment: (-1.300042, 2.089211, -11.341611) |e|*Ang

Energy contributions relative to reference atoms: (reference = -33644.147259)

Kinetic:       +260.650842
Potential:     -192.031822
External:        +0.000000
XC:            -301.618184
Entropy (-ST):   -0.091639
Local:           -1.279213
--------------------------
Free energy:   -234.370017
Extrapolated:  -234.324198

Fermi level: -0.28100

Showing only first 2 kpts
 Kpt  Band  Eigenvalues  Occupancy
  0    62     -0.41700    0.07506
  0    63     -0.09701    0.00197
  0    64     -0.09699    0.00197
  0    65      0.22463    0.00000

  1    62     -0.45428    0.15515
  1    63     -0.34546    0.12544
  1    64     -0.21623    0.03439
  1    65      0.36297    0.00000


No gap

Forces in eV/Ang:
  0 Li   -0.00007    0.00005   -0.03820
  1 Li   -0.00007    0.00005   -0.03820
  2 Li   -0.00007    0.00005   -0.03820
  3 Li   -0.00007    0.00005   -0.03825
  4 Li    0.00030   -0.00027    0.03398
  5 Li   -0.00110   -0.00017    0.03402
  6 Li   -0.00031    0.00099    0.03402
  7 Li    0.00066   -0.00032    0.11712
  8 Li   -0.00004   -0.00005   -0.03539
  9 Li   -0.22620   -0.12810   -0.31610
 10 Li   -0.00245    0.26142   -0.31914
 11 Li    0.24428   -0.14137   -0.35903
 12 Li   -0.00001    0.00002   -0.03539
 13 Li    0.23736    0.14016   -0.34637
 14 Li   -0.00285   -0.27389   -0.34304
 15 Li   -0.22011    0.12690   -0.30480
 16 Li    0.00001   -0.00012   -0.03466
 17 Li   -0.00007   -0.00016   -0.03476
 18 Li    0.00001   -0.00003   -0.03476
 19 Li    0.00008   -0.00016   -0.03476
 20 Li   -0.00007    0.00007   -0.03466
 21 Li   -0.00000    0.00011   -0.03476
 22 Li   -0.00007   -0.00001   -0.03476
 23 Li   -0.00015    0.00011   -0.03476
 24 Li   -0.00002    0.00001   -0.02898
 25 Li   -0.00002    0.00001   -0.02898
 26 Li   -0.00002    0.00001   -0.02898
 27 Li   -0.00001    0.00001   -0.02931
 28 Li   -0.00007    0.00001    0.01477
 29 Li   -0.00110   -0.00058    0.01361
 30 Li   -0.00007    0.00120    0.01361
 31 Li    0.00095   -0.00058    0.01360
 32 Li   -0.00015    0.00020    0.01477
 33 Li    0.00087    0.00079    0.01360
 34 Li   -0.00015   -0.00098    0.01360
 35 Li   -0.00118    0.00079    0.01362
 36 Li   -0.00007    0.00003    0.00624
 37 Li   -0.00001    0.00003    0.00624
 38 Li   -0.00004   -0.00002    0.00624
 39 Li   -0.00010    0.00004    0.00666
 40 Li   -0.00009    0.00003   -0.01127
 41 Li   -0.01075   -0.00617   -0.02610
 42 Li   -0.00005    0.01237   -0.02606
 43 Li    0.01061   -0.00615   -0.02555
 44 Li   -0.00014    0.00017   -0.01127
 45 Li    0.01056    0.00633   -0.02570
 46 Li   -0.00012   -0.01217   -0.02574
 47 Li   -0.01083    0.00635   -0.02627
 48 N    -0.00018    0.00017    0.04331
 49 N    -0.00018    0.00017    0.04331
 50 N    -0.00018    0.00017    0.04331
 51 N    -0.00018    0.00017    0.04612
 52 N    -0.00005   -0.00004    0.03799
 53 N    -0.00004   -0.00005    0.03799
 54 N    -0.00004   -0.00004    0.03799
 55 N    -0.00005   -0.00004    0.04565
 56 N    -0.00007   -0.00001    0.01003
 57 N     0.00010   -0.00002    0.01007
 58 N     0.00001   -0.00016    0.01006
 59 N    -0.00018    0.00003    0.07443
 60 N    -0.00052   -0.00042    0.18620
 61 N    -0.00912    0.00016    0.18666
 62 N    -0.00430    0.00732    0.18658
 63 N     0.02069   -0.01007    1.51982
 64 Li   -0.03743    0.01835   -0.39437

System changes: positions 

Initializing position-dependent things.

Density initialized from wave functions
                                         
                                         
                                         
                                         
                       Li                
                                         
           Li      Li                    
              N   Li   N  Li             
             Li      Li                  
              LiN   Li LiN  Li           
                                         
           Li   Li Li    Li              
              N   Li   N  Li             
             Li      Li                  
              LiN   Li LiN  Li           
                                         
           Li N Li Li  N Li              
                  Li      Li             
             Li N    Li  N               
              Li    Li Li   Li           
                                         
           Li N Li Li  N Li              
                  Li      Li             
             Li N    Li  N               
              Li    Li Li   Li           
                                         
                Li       Li              
                                         
                                         
                                         
                                         

Positions:
   0 Li     1.753189    1.012426    1.530029    ( 0.0000,  0.0000,  0.0000)
   1 Li    -0.000191    4.049369    1.530029    ( 0.0000,  0.0000,  0.0000)
   2 Li     5.259899    1.012426    1.530029    ( 0.0000,  0.0000,  0.0000)
   3 Li     3.506519    4.049369    1.530029    ( 0.0000,  0.0000,  0.0000)
   4 Li     1.753119    1.012455   13.294935    ( 0.0000,  0.0000,  0.0000)
   5 Li    -0.000422    4.049409   13.294939    ( 0.0000,  0.0000,  0.0000)
   6 Li     5.259758    1.012601   13.294938    ( 0.0000,  0.0000,  0.0000)
   7 Li     3.506488    4.049393   13.302656    ( 0.0000,  0.0000,  0.0000)
   8 Li     3.506389    0.000216   15.407539    ( 0.0000,  0.0000,  0.0000)
   9 Li     1.727496    3.022701   15.376401    ( 0.0000,  0.0000,  0.0000)
  10 Li     7.012840    0.029721   15.376065    ( 0.0000,  0.0000,  0.0000)
  11 Li     5.287313    3.021200   15.371659    ( 0.0000,  0.0000,  0.0000)
  12 Li    -0.000335    2.024833   15.407539    ( 0.0000,  0.0000,  0.0000)
  13 Li    -1.726907    5.077589   15.373057    ( 0.0000,  0.0000,  0.0000)
  14 Li     3.506067    1.993907   15.373425    ( 0.0000,  0.0000,  0.0000)
  15 Li     1.728169    5.076088   15.377648    ( 0.0000,  0.0000,  0.0000)
  16 Li     3.506465    0.000182    3.465092    ( 0.0000,  0.0000,  0.0000)
  17 Li     1.753085    3.037125    3.465092    ( 0.0000,  0.0000,  0.0000)
  18 Li     7.013175    0.000182    3.465092    ( 0.0000,  0.0000,  0.0000)
  19 Li     5.259795    3.037125    3.465092    ( 0.0000,  0.0000,  0.0000)
  20 Li    -0.000262    2.024791    3.465092    ( 0.0000,  0.0000,  0.0000)
  21 Li    -1.753642    5.061734    3.465092    ( 0.0000,  0.0000,  0.0000)
  22 Li     3.506448    2.024791    3.465092    ( 0.0000,  0.0000,  0.0000)
  23 Li     1.753068    5.061734    3.465092    ( 0.0000,  0.0000,  0.0000)
  24 Li     1.753084    1.012487    5.431887    ( 0.0000,  0.0000,  0.0000)
  25 Li    -0.000296    4.049430    5.431887    ( 0.0000,  0.0000,  0.0000)
  26 Li     5.259794    1.012487    5.431887    ( 0.0000,  0.0000,  0.0000)
  27 Li     3.506414    4.049430    5.431887    ( 0.0000,  0.0000,  0.0000)
  28 Li     3.506429    0.000182    7.378027    ( 0.0000,  0.0000,  0.0000)
  29 Li     1.753049    3.037125    7.378027    ( 0.0000,  0.0000,  0.0000)
  30 Li     7.013139    0.000182    7.378027    ( 0.0000,  0.0000,  0.0000)
  31 Li     5.259759    3.037125    7.378027    ( 0.0000,  0.0000,  0.0000)
  32 Li    -0.000297    2.024791    7.378027    ( 0.0000,  0.0000,  0.0000)
  33 Li    -1.753677    5.061734    7.378027    ( 0.0000,  0.0000,  0.0000)
  34 Li     3.506413    2.024791    7.378027    ( 0.0000,  0.0000,  0.0000)
  35 Li     1.753033    5.061734    7.378027    ( 0.0000,  0.0000,  0.0000)
  36 Li     1.753076    1.012490    9.353014    ( 0.0000,  0.0000,  0.0000)
  37 Li    -0.000297    4.049433    9.353014    ( 0.0000,  0.0000,  0.0000)
  38 Li     5.259789    1.012484    9.353014    ( 0.0000,  0.0000,  0.0000)
  39 Li     3.506402    4.049435    9.353012    ( 0.0000,  0.0000,  0.0000)
  40 Li     3.506420    0.000185   11.318409    ( 0.0000,  0.0000,  0.0000)
  41 Li     1.751859    3.036442   11.316778    ( 0.0000,  0.0000,  0.0000)
  42 Li     7.013135    0.001551   11.316783    ( 0.0000,  0.0000,  0.0000)
  43 Li     5.260934    3.036445   11.316840    ( 0.0000,  0.0000,  0.0000)
  44 Li    -0.000313    2.024810   11.318409    ( 0.0000,  0.0000,  0.0000)
  45 Li    -1.752509    5.062435   11.316823    ( 0.0000,  0.0000,  0.0000)
  46 Li     3.506399    2.023444   11.316819    ( 0.0000,  0.0000,  0.0000)
  47 Li     1.751834    5.062437   11.316759    ( 0.0000,  0.0000,  0.0000)
  48 N      1.753084    1.012487    3.439048    ( 0.0000,  0.0000,  0.0000)
  49 N     -0.000296    4.049430    3.439048    ( 0.0000,  0.0000,  0.0000)
  50 N      5.259794    1.012487    3.439048    ( 0.0000,  0.0000,  0.0000)
  51 N      3.506414    4.049430    3.439048    ( 0.0000,  0.0000,  0.0000)
  52 N      1.753031    1.012517    7.360963    ( 0.0000,  0.0000,  0.0000)
  53 N     -0.000349    4.049460    7.360963    ( 0.0000,  0.0000,  0.0000)
  54 N      5.259741    1.012517    7.360963    ( 0.0000,  0.0000,  0.0000)
  55 N      3.506361    4.049460    7.360963    ( 0.0000,  0.0000,  0.0000)
  56 N      1.753023    1.012517   11.297356    ( 0.0000,  0.0000,  0.0000)
  57 N     -0.000334    4.049458   11.297360    ( 0.0000,  0.0000,  0.0000)
  58 N      5.259743    1.012496   11.297359    ( 0.0000,  0.0000,  0.0000)
  59 N      3.506338    4.049465   11.304440    ( 0.0000,  0.0000,  0.0000)
  60 N      1.752982    1.012461   15.236082    ( 0.0000,  0.0000,  0.0000)
  61 N     -0.001405    4.049472   15.236134    ( 0.0000,  0.0000,  0.0000)
  62 N      5.259249    1.013368   15.236125    ( 0.0000,  0.0000,  0.0000)
  63 N      3.508698    4.048323   15.385479    ( 0.0000,  0.0000,  0.0000)
  64 Li     3.538915    4.033507   17.180550    ( 0.0000,  0.0000,  0.0000)

Unit cell:
           periodic     x           y           z      points  spacing
  1. axis:    yes    7.013420    0.000000    0.000000    40     0.1518
  2. axis:    yes   -3.506760    6.073886    0.000000    40     0.1518
  3. axis:    yes    0.000000    0.000000   29.936001   160     0.1871

  Lengths:   7.013420   7.013520  29.936001
  Angles:   90.000000  90.000000 120.000000

Effective grid spacing dv^(1/3) = 0.1708

                     log10-error:    total        iterations:
           time      wfs    density  energy       fermi  poisson
iter:   1  20:08:39  -1.83         -234.733366    4             
iter:   2  20:08:57  -2.96  -1.78  -235.023964    4             
iter:   3  20:09:15  -3.74  -1.70  -234.596593    4             
iter:   4  20:09:34  -3.46  -2.06  -234.637424    3             
iter:   5  20:09:52  -3.12  -1.82  -234.509914    4             
iter:   6  20:10:10  -3.83  -2.30  -234.526712    3             
iter:   7  20:10:28  -4.15  -2.14  -234.503542    3             
iter:   8  20:10:46  -3.55  -2.29  -234.489846    3             
iter:   9  20:11:04  -4.71  -2.66  -234.488315    2             
iter:  10  20:11:22  -4.54  -2.63  -234.490602    3             
iter:  11  20:11:40  -4.57  -2.80  -234.488326    3             
iter:  12  20:11:58  -5.14  -2.92  -234.487954    2             
iter:  13  20:12:16  -5.30  -2.95  -234.485816    3             
iter:  14  20:12:34  -5.44  -3.18  -234.484995    2             
iter:  15  20:12:53  -5.90  -3.28  -234.485084    2             
iter:  16  20:13:11  -6.63  -3.40  -234.485241    2             
iter:  17  20:13:29  -6.72  -3.55  -234.485620    3             
iter:  18  20:13:47  -6.81  -3.52  -234.485214    2             
iter:  19  20:14:05  -6.88  -3.58  -234.485703    3             
iter:  20  20:14:23  -6.59  -3.53  -234.485065    3             
iter:  21  20:14:41  -6.63  -3.76  -234.485223    2             
iter:  22  20:14:59  -7.07  -4.09  -234.485119    2             

Converged after 22 iterations.

Dipole moment: (-1.446186, 1.870844, -11.362011) |e|*Ang

Energy contributions relative to reference atoms: (reference = -33644.147259)

Kinetic:       +262.280277
Potential:     -193.251139
External:        +0.000000
XC:            -302.193323
Entropy (-ST):   -0.096821
Local:           -1.272524
--------------------------
Free energy:   -234.533530
Extrapolated:  -234.485119

Fermi level: -0.30461

Showing only first 2 kpts
 Kpt  Band  Eigenvalues  Occupancy
  0    62     -0.43196    0.07419
  0    63     -0.14504    0.00316
  0    64     -0.14496    0.00315
  0    65      0.18692    0.00000

  1    62     -0.47402    0.15477
  1    63     -0.37786    0.12997
  1    64     -0.25434    0.04286
  1    65      0.33294    0.00000


No gap

Forces in eV/Ang:
  0 Li   -0.00007    0.00005   -0.03900
  1 Li   -0.00007    0.00005   -0.03900
  2 Li   -0.00007    0.00005   -0.03900
  3 Li   -0.00007    0.00005   -0.03911
  4 Li   -0.00065    0.00051    0.03910
  5 Li    0.00148    0.00036    0.03924
  6 Li    0.00029   -0.00141    0.03921
  7 Li   -0.00023    0.00012    0.37104
  8 Li    0.00562   -0.00273    0.05132
  9 Li    0.03838    0.01971   -0.09182
 10 Li    0.00231   -0.04333   -0.09377
 11 Li   -0.04028    0.02347   -0.11920
 12 Li    0.00570   -0.00281    0.05133
 13 Li   -0.03831   -0.02475   -0.11118
 14 Li    0.00247    0.04529   -0.10905
 15 Li    0.03662   -0.02093   -0.08454
 16 Li    0.00001   -0.00012   -0.03595
 17 Li   -0.00012   -0.00019   -0.03610
 18 Li    0.00001    0.00003   -0.03610
 19 Li    0.00013   -0.00019   -0.03610
 20 Li   -0.00007    0.00007   -0.03595
 21 Li    0.00005    0.00014   -0.03610
 22 Li   -0.00007   -0.00007   -0.03610
 23 Li   -0.00020    0.00014   -0.03610
 24 Li   -0.00002    0.00001   -0.03300
 25 Li   -0.00001    0.00001   -0.03300
 26 Li   -0.00002    0.00001   -0.03300
 27 Li   -0.00002    0.00001   -0.03351
 28 Li   -0.00007    0.00001    0.01483
 29 Li   -0.00187   -0.00102    0.01310
 30 Li   -0.00008    0.00209    0.01310
 31 Li    0.00173   -0.00103    0.01311
 32 Li   -0.00015    0.00020    0.01483
 33 Li    0.00164    0.00124    0.01311
 34 Li   -0.00016   -0.00188    0.01311
 35 Li   -0.00195    0.00124    0.01310
 36 Li   -0.00004    0.00001   -0.00231
 37 Li   -0.00010    0.00001   -0.00230
 38 Li   -0.00006    0.00006   -0.00230
 39 Li   -0.00002    0.00000    0.01809
 40 Li   -0.00010    0.00007    0.00563
 41 Li   -0.00288   -0.00157   -0.00302
 42 Li   -0.00006    0.00329   -0.00302
 43 Li    0.00271   -0.00156   -0.00298
 44 Li   -0.00009    0.00004    0.00563
 45 Li    0.00273    0.00163   -0.00299
 46 Li   -0.00005   -0.00320   -0.00299
 47 Li   -0.00288    0.00166   -0.00303
 48 N    -0.00018    0.00018    0.05184
 49 N    -0.00019    0.00017    0.05184
 50 N    -0.00018    0.00018    0.05184
 51 N    -0.00018    0.00017    0.06296
 52 N    -0.00004   -0.00004    0.04377
 53 N    -0.00003   -0.00004    0.04376
 54 N    -0.00004   -0.00006    0.04376
 55 N    -0.00006   -0.00004    0.05336
 56 N    -0.00008    0.00004   -0.00002
 57 N    -0.00020    0.00005    0.00005
 58 N    -0.00013    0.00015    0.00004
 59 N    -0.00008    0.00006    0.08271
 60 N    -0.00314    0.00274   -0.10980
 61 N     0.01057    0.00181   -0.10988
 62 N     0.00291   -0.00960   -0.10986
 63 N    -0.01199    0.00588   -0.39024
 64 Li   -0.01316    0.00645    0.46956

System changes: positions 

Initializing position-dependent things.

Density initialized from wave functions
                                         
                                         
                                         
                                         
                       Li                
                                         
           Li      Li                    
              N   Li   N  Li             
             Li      Li                  
              LiN   Li LiN  Li           
                                         
           Li   Li Li    Li              
              N   Li   N  Li             
             Li      Li                  
              LiN   Li LiN  Li           
                                         
           Li N Li Li  N Li              
                  Li      Li             
             Li N    Li  N               
              Li    Li Li   Li           
                                         
           Li N Li Li  N Li              
                  Li      Li             
             Li N    Li  N               
              Li    Li Li   Li           
                                         
                Li       Li              
                                         
                                         
                                         
                                         

Positions:
   0 Li     1.753189    1.012426    1.530029    ( 0.0000,  0.0000,  0.0000)
   1 Li    -0.000191    4.049369    1.530029    ( 0.0000,  0.0000,  0.0000)
   2 Li     5.259899    1.012426    1.530029    ( 0.0000,  0.0000,  0.0000)
   3 Li     3.506519    4.049369    1.530029    ( 0.0000,  0.0000,  0.0000)
   4 Li     1.753108    1.012464   13.295033    ( 0.0000,  0.0000,  0.0000)
   5 Li    -0.000393    4.049416   13.295039    ( 0.0000,  0.0000,  0.0000)
   6 Li     5.259765    1.012573   13.295038    ( 0.0000,  0.0000,  0.0000)
   7 Li     3.506478    4.049398   13.305811    ( 0.0000,  0.0000,  0.0000)
   8 Li     3.506457    0.000184   15.408539    ( 0.0000,  0.0000,  0.0000)
   9 Li     1.730407    3.024325   15.378724    ( 0.0000,  0.0000,  0.0000)
  10 Li     7.012894    0.026369   15.378397    ( 0.0000,  0.0000,  0.0000)
  11 Li     5.284183    3.023013   15.374118    ( 0.0000,  0.0000,  0.0000)
  12 Li    -0.000266    2.024799   15.408539    ( 0.0000,  0.0000,  0.0000)
  13 Li    -1.729938    5.075774   15.375475    ( 0.0000,  0.0000,  0.0000)
  14 Li     3.506128    1.997418   15.375833    ( 0.0000,  0.0000,  0.0000)
  15 Li     1.730993    5.074462   15.379935    ( 0.0000,  0.0000,  0.0000)
  16 Li     3.506465    0.000182    3.465092    ( 0.0000,  0.0000,  0.0000)
  17 Li     1.753085    3.037125    3.465092    ( 0.0000,  0.0000,  0.0000)
  18 Li     7.013175    0.000182    3.465092    ( 0.0000,  0.0000,  0.0000)
  19 Li     5.259795    3.037125    3.465092    ( 0.0000,  0.0000,  0.0000)
  20 Li    -0.000262    2.024791    3.465092    ( 0.0000,  0.0000,  0.0000)
  21 Li    -1.753642    5.061734    3.465092    ( 0.0000,  0.0000,  0.0000)
  22 Li     3.506448    2.024791    3.465092    ( 0.0000,  0.0000,  0.0000)
  23 Li     1.753068    5.061734    3.465092    ( 0.0000,  0.0000,  0.0000)
  24 Li     1.753084    1.012487    5.431887    ( 0.0000,  0.0000,  0.0000)
  25 Li    -0.000296    4.049430    5.431887    ( 0.0000,  0.0000,  0.0000)
  26 Li     5.259794    1.012487    5.431887    ( 0.0000,  0.0000,  0.0000)
  27 Li     3.506414    4.049430    5.431887    ( 0.0000,  0.0000,  0.0000)
  28 Li     3.506429    0.000182    7.378027    ( 0.0000,  0.0000,  0.0000)
  29 Li     1.753049    3.037125    7.378027    ( 0.0000,  0.0000,  0.0000)
  30 Li     7.013139    0.000182    7.378027    ( 0.0000,  0.0000,  0.0000)
  31 Li     5.259759    3.037125    7.378027    ( 0.0000,  0.0000,  0.0000)
  32 Li    -0.000297    2.024791    7.378027    ( 0.0000,  0.0000,  0.0000)
  33 Li    -1.753677    5.061734    7.378027    ( 0.0000,  0.0000,  0.0000)
  34 Li     3.506413    2.024791    7.378027    ( 0.0000,  0.0000,  0.0000)
  35 Li     1.753033    5.061734    7.378027    ( 0.0000,  0.0000,  0.0000)
  36 Li     1.753076    1.012490    9.352918    ( 0.0000,  0.0000,  0.0000)
  37 Li    -0.000298    4.049433    9.352919    ( 0.0000,  0.0000,  0.0000)
  38 Li     5.259789    1.012485    9.352919    ( 0.0000,  0.0000,  0.0000)
  39 Li     3.506403    4.049434    9.353157    ( 0.0000,  0.0000,  0.0000)
  40 Li     3.506419    0.000186   11.318598    ( 0.0000,  0.0000,  0.0000)
  41 Li     1.751942    3.036490   11.317024    ( 0.0000,  0.0000,  0.0000)
  42 Li     7.013134    0.001456   11.317029    ( 0.0000,  0.0000,  0.0000)
  43 Li     5.260851    3.036493   11.317081    ( 0.0000,  0.0000,  0.0000)
  44 Li    -0.000313    2.024809   11.318598    ( 0.0000,  0.0000,  0.0000)
  45 Li    -1.752591    5.062386   11.317066    ( 0.0000,  0.0000,  0.0000)
  46 Li     3.506400    2.023538   11.317062    ( 0.0000,  0.0000,  0.0000)
  47 Li     1.751917    5.062388   11.317007    ( 0.0000,  0.0000,  0.0000)
  48 N      1.753084    1.012487    3.439048    ( 0.0000,  0.0000,  0.0000)
  49 N     -0.000296    4.049430    3.439048    ( 0.0000,  0.0000,  0.0000)
  50 N      5.259794    1.012487    3.439048    ( 0.0000,  0.0000,  0.0000)
  51 N      3.506414    4.049430    3.439048    ( 0.0000,  0.0000,  0.0000)
  52 N      1.753031    1.012517    7.360963    ( 0.0000,  0.0000,  0.0000)
  53 N     -0.000349    4.049460    7.360963    ( 0.0000,  0.0000,  0.0000)
  54 N      5.259741    1.012517    7.360963    ( 0.0000,  0.0000,  0.0000)
  55 N      3.506361    4.049460    7.360963    ( 0.0000,  0.0000,  0.0000)
  56 N      1.753022    1.012517   11.297254    ( 0.0000,  0.0000,  0.0000)
  57 N     -0.000337    4.049459   11.297259    ( 0.0000,  0.0000,  0.0000)
  58 N      5.259742    1.012499   11.297258    ( 0.0000,  0.0000,  0.0000)
  59 N      3.506338    4.049466   11.304638    ( 0.0000,  0.0000,  0.0000)
  60 N      1.752951    1.012499   15.232754    ( 0.0000,  0.0000,  0.0000)
  61 N     -0.001179    4.049492   15.232800    ( 0.0000,  0.0000,  0.0000)
  62 N      5.259331    1.013174   15.232792    ( 0.0000,  0.0000,  0.0000)
  63 N      3.508329    4.048503   15.364282    ( 0.0000,  0.0000,  0.0000)
  64 Li     3.539164    4.033385   17.190520    ( 0.0000,  0.0000,  0.0000)

Unit cell:
           periodic     x           y           z      points  spacing
  1. axis:    yes    7.013420    0.000000    0.000000    40     0.1518
  2. axis:    yes   -3.506760    6.073886    0.000000    40     0.1518
  3. axis:    yes    0.000000    0.000000   29.936001   160     0.1871

  Lengths:   7.013420   7.013520  29.936001
  Angles:   90.000000  90.000000 120.000000

Effective grid spacing dv^(1/3) = 0.1708

                     log10-error:    total        iterations:
           time      wfs    density  energy       fermi  poisson
iter:   1  20:15:35  -3.41         -234.534234    3             
iter:   2  20:15:53  -4.09  -2.30  -234.563828    4             
iter:   3  20:16:11  -4.57  -1.96  -234.508469    4             
iter:   4  20:16:29  -5.04  -2.55  -234.493867    3             
iter:   5  20:16:47  -4.73  -2.85  -234.500210    3             
iter:   6  20:17:05  -4.95  -2.80  -234.494904    3             
iter:   7  20:17:24  -5.64  -3.29  -234.494556    3             
iter:   8  20:17:42  -5.90  -3.36  -234.493706    3             
iter:   9  20:18:00  -6.23  -3.79  -234.494012    2             
iter:  10  20:18:18  -7.31  -3.91  -234.493883    2             
iter:  11  20:18:36  -7.53  -4.10  -234.493825    2             

Converged after 11 iterations.

Dipole moment: (-1.426870, 1.901535, -11.358712) |e|*Ang

Energy contributions relative to reference atoms: (reference = -33644.147259)

Kinetic:       +261.910929
Potential:     -192.974950
External:        +0.000000
XC:            -302.096835
Entropy (-ST):   -0.095865
Local:           -1.285037
--------------------------
Free energy:   -234.541758
Extrapolated:  -234.493825

Fermi level: -0.29954

Showing only first 2 kpts
 Kpt  Band  Eigenvalues  Occupancy
  0    62     -0.42820    0.07433
  0    63     -0.13648    0.00295
  0    64     -0.13643    0.00295
  0    65      0.19492    0.00000

  1    62     -0.46931    0.15481
  1    63     -0.37192    0.12954
  1    64     -0.24784    0.04197
  1    65      0.33980    0.00000


No gap

Forces in eV/Ang:
  0 Li   -0.00007    0.00005   -0.04002
  1 Li   -0.00007    0.00005   -0.04002
  2 Li   -0.00007    0.00005   -0.04002
  3 Li   -0.00007    0.00005   -0.04014
  4 Li   -0.00054    0.00043    0.02728
  5 Li    0.00133    0.00031    0.02739
  6 Li    0.00028   -0.00125    0.02737
  7 Li   -0.00044    0.00022    0.32161
  8 Li    0.00421   -0.00205    0.04285
  9 Li    0.00136   -0.00095   -0.11646
 10 Li    0.00163   -0.00070   -0.11846
 11 Li   -0.00059    0.00048   -0.14454
 12 Li    0.00428   -0.00210    0.04286
 13 Li    0.00017   -0.00172   -0.13631
 14 Li    0.00171    0.00071   -0.13413
 15 Li    0.00069   -0.00024   -0.10900
 16 Li    0.00001   -0.00012   -0.03606
 17 Li   -0.00011   -0.00019   -0.03620
 18 Li    0.00001    0.00002   -0.03620
 19 Li    0.00013   -0.00019   -0.03620
 20 Li   -0.00007    0.00007   -0.03606
 21 Li    0.00004    0.00014   -0.03620
 22 Li   -0.00007   -0.00007   -0.03620
 23 Li   -0.00019    0.00014   -0.03620
 24 Li   -0.00002    0.00001   -0.03223
 25 Li   -0.00001    0.00001   -0.03223
 26 Li   -0.00002    0.00001   -0.03223
 27 Li   -0.00002    0.00001   -0.03257
 28 Li   -0.00007    0.00001    0.01471
 29 Li   -0.00179   -0.00098    0.01302
 30 Li   -0.00007    0.00200    0.01302
 31 Li    0.00164   -0.00098    0.01302
 32 Li   -0.00015    0.00020    0.01471
 33 Li    0.00156    0.00119    0.01302
 34 Li   -0.00016   -0.00178    0.01302
 35 Li   -0.00187    0.00119    0.01302
 36 Li   -0.00004    0.00001   -0.00072
 37 Li   -0.00008    0.00002   -0.00071
 38 Li   -0.00006    0.00005   -0.00071
 39 Li   -0.00003    0.00001    0.02005
 40 Li   -0.00011    0.00007    0.00435
 41 Li   -0.00277   -0.00153   -0.00369
 42 Li   -0.00006    0.00317   -0.00368
 43 Li    0.00261   -0.00150   -0.00353
 44 Li   -0.00011    0.00007    0.00435
 45 Li    0.00262    0.00159   -0.00357
 46 Li   -0.00006   -0.00306   -0.00358
 47 Li   -0.00278    0.00161   -0.00374
 48 N    -0.00018    0.00018    0.05271
 49 N    -0.00018    0.00017    0.05272
 50 N    -0.00018    0.00018    0.05272
 51 N    -0.00018    0.00018    0.06605
 52 N    -0.00004   -0.00005    0.04741
 53 N    -0.00005   -0.00005    0.04742
 54 N    -0.00004   -0.00004    0.04742
 55 N    -0.00004   -0.00005    0.05755
 56 N    -0.00012    0.00008    0.00030
 57 N     0.00004    0.00007    0.00032
 58 N    -0.00005   -0.00006    0.00031
 59 N    -0.00028    0.00014    0.08829
 60 N    -0.00168    0.00153   -0.06278
 61 N     0.00618    0.00100   -0.06267
 62 N     0.00178   -0.00555   -0.06268
 63 N    -0.00447    0.00221    0.02765
 64 Li   -0.01719    0.00843    0.23377

System changes: positions 

Initializing position-dependent things.

Density initialized from wave functions
                                         
                                         
                                         
                                         
                       Li                
                                         
           Li      Li                    
              N   Li   N  Li             
             Li      Li                  
              LiN   Li LiN  Li           
                                         
           Li   Li Li    Li              
              N   Li   N  Li             
             Li      Li                  
              LiN   Li LiN  Li           
                                         
           Li N Li Li  N Li              
                  Li      Li             
             Li N    Li  N               
              Li    Li Li   Li           
                                         
           Li N Li Li  N Li              
                  Li      Li             
             Li N    Li  N               
              Li    Li Li   Li           
                                         
                Li       Li              
                                         
                                         
                                         
                                         

Positions:
   0 Li     1.753189    1.012426    1.530029    ( 0.0000,  0.0000,  0.0000)
   1 Li    -0.000191    4.049369    1.530029    ( 0.0000,  0.0000,  0.0000)
   2 Li     5.259899    1.012426    1.530029    ( 0.0000,  0.0000,  0.0000)
   3 Li     3.506519    4.049369    1.530029    ( 0.0000,  0.0000,  0.0000)
   4 Li     1.753096    1.012474   13.295737    ( 0.0000,  0.0000,  0.0000)
   5 Li    -0.000363    4.049423   13.295745    ( 0.0000,  0.0000,  0.0000)
   6 Li     5.259771    1.012545   13.295743    ( 0.0000,  0.0000,  0.0000)
   7 Li     3.506471    4.049402   13.313249    ( 0.0000,  0.0000,  0.0000)
   8 Li     3.506558    0.000135   15.409494    ( 0.0000,  0.0000,  0.0000)
   9 Li     1.730400    3.024281   15.375949    ( 0.0000,  0.0000,  0.0000)
  10 Li     7.012931    0.026398   15.375576    ( 0.0000,  0.0000,  0.0000)
  11 Li     5.284212    3.022999   15.370682    ( 0.0000,  0.0000,  0.0000)
  12 Li    -0.000164    2.024748   15.409494    ( 0.0000,  0.0000,  0.0000)
  13 Li    -1.729893    5.075758   15.372233    ( 0.0000,  0.0000,  0.0000)
  14 Li     3.506166    1.997387   15.372642    ( 0.0000,  0.0000,  0.0000)
  15 Li     1.730971    5.074478   15.377337    ( 0.0000,  0.0000,  0.0000)
  16 Li     3.506465    0.000182    3.465092    ( 0.0000,  0.0000,  0.0000)
  17 Li     1.753085    3.037125    3.465092    ( 0.0000,  0.0000,  0.0000)
  18 Li     7.013175    0.000182    3.465092    ( 0.0000,  0.0000,  0.0000)
  19 Li     5.259795    3.037125    3.465092    ( 0.0000,  0.0000,  0.0000)
  20 Li    -0.000262    2.024791    3.465092    ( 0.0000,  0.0000,  0.0000)
  21 Li    -1.753642    5.061734    3.465092    ( 0.0000,  0.0000,  0.0000)
  22 Li     3.506448    2.024791    3.465092    ( 0.0000,  0.0000,  0.0000)
  23 Li     1.753068    5.061734    3.465092    ( 0.0000,  0.0000,  0.0000)
  24 Li     1.753084    1.012487    5.431887    ( 0.0000,  0.0000,  0.0000)
  25 Li    -0.000296    4.049430    5.431887    ( 0.0000,  0.0000,  0.0000)
  26 Li     5.259794    1.012487    5.431887    ( 0.0000,  0.0000,  0.0000)
  27 Li     3.506414    4.049430    5.431887    ( 0.0000,  0.0000,  0.0000)
  28 Li     3.506429    0.000182    7.378027    ( 0.0000,  0.0000,  0.0000)
  29 Li     1.753049    3.037125    7.378027    ( 0.0000,  0.0000,  0.0000)
  30 Li     7.013139    0.000182    7.378027    ( 0.0000,  0.0000,  0.0000)
  31 Li     5.259759    3.037125    7.378027    ( 0.0000,  0.0000,  0.0000)
  32 Li    -0.000297    2.024791    7.378027    ( 0.0000,  0.0000,  0.0000)
  33 Li    -1.753677    5.061734    7.378027    ( 0.0000,  0.0000,  0.0000)
  34 Li     3.506413    2.024791    7.378027    ( 0.0000,  0.0000,  0.0000)
  35 Li     1.753033    5.061734    7.378027    ( 0.0000,  0.0000,  0.0000)
  36 Li     1.753075    1.012490    9.352900    ( 0.0000,  0.0000,  0.0000)
  37 Li    -0.000300    4.049433    9.352901    ( 0.0000,  0.0000,  0.0000)
  38 Li     5.259787    1.012486    9.352901    ( 0.0000,  0.0000,  0.0000)
  39 Li     3.506403    4.049434    9.353595    ( 0.0000,  0.0000,  0.0000)
  40 Li     3.506417    0.000187   11.318688    ( 0.0000,  0.0000,  0.0000)
  41 Li     1.751869    3.036450   11.316918    ( 0.0000,  0.0000,  0.0000)
  42 Li     7.013133    0.001540   11.316923    ( 0.0000,  0.0000,  0.0000)
  43 Li     5.260921    3.036453   11.316979    ( 0.0000,  0.0000,  0.0000)
  44 Li    -0.000315    2.024811   11.318688    ( 0.0000,  0.0000,  0.0000)
  45 Li    -1.752521    5.062428   11.316962    ( 0.0000,  0.0000,  0.0000)
  46 Li     3.506399    2.023457   11.316958    ( 0.0000,  0.0000,  0.0000)
  47 Li     1.751844    5.062430   11.316900    ( 0.0000,  0.0000,  0.0000)
  48 N      1.753084    1.012487    3.439048    ( 0.0000,  0.0000,  0.0000)
  49 N     -0.000296    4.049430    3.439048    ( 0.0000,  0.0000,  0.0000)
  50 N      5.259794    1.012487    3.439048    ( 0.0000,  0.0000,  0.0000)
  51 N      3.506414    4.049430    3.439048    ( 0.0000,  0.0000,  0.0000)
  52 N      1.753031    1.012517    7.360963    ( 0.0000,  0.0000,  0.0000)
  53 N     -0.000349    4.049460    7.360963    ( 0.0000,  0.0000,  0.0000)
  54 N      5.259741    1.012517    7.360963    ( 0.0000,  0.0000,  0.0000)
  55 N      3.506361    4.049460    7.360963    ( 0.0000,  0.0000,  0.0000)
  56 N      1.753020    1.012519   11.297286    ( 0.0000,  0.0000,  0.0000)
  57 N     -0.000337    4.049461   11.297291    ( 0.0000,  0.0000,  0.0000)
  58 N      5.259740    1.012499   11.297290    ( 0.0000,  0.0000,  0.0000)
  59 N      3.506333    4.049469   11.306656    ( 0.0000,  0.0000,  0.0000)
  60 N      1.752904    1.012539   15.231320    ( 0.0000,  0.0000,  0.0000)
  61 N     -0.001028    4.049519   15.231368    ( 0.0000,  0.0000,  0.0000)
  62 N      5.259372    1.013036   15.231360    ( 0.0000,  0.0000,  0.0000)
  63 N      3.508207    4.048563   15.364047    ( 0.0000,  0.0000,  0.0000)
  64 Li     3.538769    4.033578   17.196736    ( 0.0000,  0.0000,  0.0000)

Unit cell:
           periodic     x           y           z      points  spacing
  1. axis:    yes    7.013420    0.000000    0.000000    40     0.1518
  2. axis:    yes   -3.506760    6.073886    0.000000    40     0.1518
  3. axis:    yes    0.000000    0.000000   29.936001   160     0.1871

  Lengths:   7.013420   7.013520  29.936001
  Angles:   90.000000  90.000000 120.000000

Effective grid spacing dv^(1/3) = 0.1708

                     log10-error:    total        iterations:
           time      wfs    density  energy       fermi  poisson
iter:   1  20:19:12  -4.34         -234.498580    3             
iter:   2  20:19:30  -5.16  -2.78  -234.519665    3             
iter:   3  20:19:48  -5.73  -2.50  -234.502282    3             
iter:   4  20:20:06  -5.73  -3.06  -234.499386    3             
iter:   5  20:20:24  -5.73  -3.20  -234.501154    3             
iter:   6  20:20:42  -5.93  -3.38  -234.500274    2             
iter:   7  20:21:01  -6.35  -3.89  -234.500527    2             
iter:   8  20:21:19  -6.86  -3.73  -234.500235    2             
iter:   9  20:21:37  -7.80  -4.09  -234.500116    2             

Converged after 9 iterations.

Dipole moment: (-1.426387, 1.901937, -11.355235) |e|*Ang

Energy contributions relative to reference atoms: (reference = -33644.147259)

Kinetic:       +261.803193
Potential:     -192.899457
External:        +0.000000
XC:            -302.072520
Entropy (-ST):   -0.095915
Local:           -1.283375
--------------------------
Free energy:   -234.548074
Extrapolated:  -234.500116

Fermi level: -0.29772

Showing only first 2 kpts
 Kpt  Band  Eigenvalues  Occupancy
  0    62     -0.42627    0.07432
  0    63     -0.13480    0.00296
  0    64     -0.13475    0.00296
  0    65      0.19795    0.00000

  1    62     -0.46740    0.15480
  1    63     -0.37018    0.12958
  1    64     -0.24627    0.04213
  1    65      0.34224    0.00000


No gap

Forces in eV/Ang:
  0 Li   -0.00007    0.00005   -0.03988
  1 Li   -0.00007    0.00005   -0.03988
  2 Li   -0.00007    0.00005   -0.03988
  3 Li   -0.00007    0.00005   -0.04001
  4 Li   -0.00062    0.00052    0.01296
  5 Li    0.00178    0.00035    0.01305
  6 Li    0.00044   -0.00165    0.01304
  7 Li   -0.00096    0.00048    0.27288
  8 Li    0.00343   -0.00167    0.04556
  9 Li    0.00420    0.00089   -0.11169
 10 Li    0.00144   -0.00408   -0.11357
 11 Li   -0.00353    0.00217   -0.13812
 12 Li    0.00347   -0.00170    0.04556
 13 Li   -0.00284   -0.00327   -0.13038
 14 Li    0.00153    0.00409   -0.12833
 15 Li    0.00362   -0.00195   -0.10465
 16 Li    0.00001   -0.00012   -0.03607
 17 Li   -0.00012   -0.00019   -0.03622
 18 Li    0.00001    0.00003   -0.03622
 19 Li    0.00013   -0.00019   -0.03622
 20 Li   -0.00007    0.00007   -0.03607
 21 Li    0.00005    0.00014   -0.03622
 22 Li   -0.00007   -0.00007   -0.03622
 23 Li   -0.00020    0.00014   -0.03622
 24 Li   -0.00002    0.00001   -0.03177
 25 Li   -0.00002    0.00001   -0.03177
 26 Li   -0.00002    0.00001   -0.03177
 27 Li   -0.00002    0.00001   -0.03201
 28 Li   -0.00007    0.00002    0.01482
 29 Li   -0.00180   -0.00099    0.01316
 30 Li   -0.00007    0.00201    0.01316
 31 Li    0.00166   -0.00099    0.01316
 32 Li   -0.00016    0.00020    0.01482
 33 Li    0.00158    0.00120    0.01316
 34 Li   -0.00016   -0.00180    0.01316
 35 Li   -0.00189    0.00120    0.01315
 36 Li   -0.00004    0.00001    0.00026
 37 Li   -0.00007    0.00002    0.00027
 38 Li   -0.00006    0.00004    0.00027
 39 Li   -0.00004    0.00001    0.02488
 40 Li   -0.00009    0.00006    0.00538
 41 Li   -0.00040   -0.00013    0.00139
 42 Li   -0.00008    0.00042    0.00140
 43 Li    0.00024   -0.00013    0.00151
 44 Li   -0.00009    0.00006    0.00538
 45 Li    0.00024    0.00023    0.00148
 46 Li   -0.00008   -0.00032    0.00147
 47 Li   -0.00040    0.00023    0.00136
 48 N    -0.00018    0.00018    0.05045
 49 N    -0.00018    0.00018    0.05045
 50 N    -0.00018    0.00018    0.05045
 51 N    -0.00018    0.00018    0.06413
 52 N    -0.00004   -0.00005    0.04643
 53 N    -0.00004   -0.00005    0.04645
 54 N    -0.00004   -0.00005    0.04644
 55 N    -0.00005   -0.00004    0.05931
 56 N    -0.00007    0.00003   -0.00292
 57 N    -0.00017    0.00004   -0.00292
 58 N    -0.00012    0.00013   -0.00292
 59 N    -0.00003    0.00002    0.08343
 60 N    -0.00087    0.00095   -0.06230
 61 N     0.00495    0.00056   -0.06221
 62 N     0.00169   -0.00430   -0.06222
 63 N    -0.00236    0.00117    0.03725
 64 Li   -0.01682    0.00825    0.17485

System changes: positions 

Initializing position-dependent things.

Density initialized from wave functions
                                         
                                         
                                         
                                         
                       Li                
                                         
           Li      Li                    
              N   Li   N  Li             
             Li      Li                  
              LiN   Li LiN  Li           
                                         
           Li   Li Li    Li              
              N   Li   N  Li             
             Li      Li                  
              LiN   Li LiN  Li           
                                         
           Li N Li Li  N Li              
                  Li      Li             
             Li N    Li  N               
              Li    Li Li   Li           
                                         
           Li N Li Li  N Li              
                  Li      Li             
             Li N    Li  N               
              Li    Li Li   Li           
                                         
                Li       Li              
                                         
                                         
                                         
                                         

Positions:
   0 Li     1.753189    1.012426    1.530029    ( 0.0000,  0.0000,  0.0000)
   1 Li    -0.000191    4.049369    1.530029    ( 0.0000,  0.0000,  0.0000)
   2 Li     5.259899    1.012426    1.530029    ( 0.0000,  0.0000,  0.0000)
   3 Li     3.506519    4.049369    1.530029    ( 0.0000,  0.0000,  0.0000)
   4 Li     1.752993    1.012558   13.299693    ( 0.0000,  0.0000,  0.0000)
   5 Li    -0.000091    4.049481   13.299719    ( 0.0000,  0.0000,  0.0000)
   6 Li     5.259833    1.012292   13.299715    ( 0.0000,  0.0000,  0.0000)
   7 Li     3.506354    4.049460   13.365855    ( 0.0000,  0.0000,  0.0000)
   8 Li     3.507250   -0.000203   15.417072    ( 0.0000,  0.0000,  0.0000)
   9 Li     1.729889    3.023709   15.353929    ( 0.0000,  0.0000,  0.0000)
  10 Li     7.013189    0.027135   15.353193    ( 0.0000,  0.0000,  0.0000)
  11 Li     5.284940    3.022601   15.343573    ( 0.0000,  0.0000,  0.0000)
  12 Li     0.000538    2.024404   15.417073    ( 0.0000,  0.0000,  0.0000)
  13 Li    -1.729072    5.075945   15.346615    ( 0.0000,  0.0000,  0.0000)
  14 Li     3.506437    1.996591   15.347419    ( 0.0000,  0.0000,  0.0000)
  15 Li     1.730379    5.074845   15.356670    ( 0.0000,  0.0000,  0.0000)
  16 Li     3.506465    0.000182    3.465092    ( 0.0000,  0.0000,  0.0000)
  17 Li     1.753085    3.037125    3.465092    ( 0.0000,  0.0000,  0.0000)
  18 Li     7.013175    0.000182    3.465092    ( 0.0000,  0.0000,  0.0000)
  19 Li     5.259795    3.037125    3.465092    ( 0.0000,  0.0000,  0.0000)
  20 Li    -0.000262    2.024791    3.465092    ( 0.0000,  0.0000,  0.0000)
  21 Li    -1.753642    5.061734    3.465092    ( 0.0000,  0.0000,  0.0000)
  22 Li     3.506448    2.024791    3.465092    ( 0.0000,  0.0000,  0.0000)
  23 Li     1.753068    5.061734    3.465092    ( 0.0000,  0.0000,  0.0000)
  24 Li     1.753084    1.012487    5.431887    ( 0.0000,  0.0000,  0.0000)
  25 Li    -0.000296    4.049430    5.431887    ( 0.0000,  0.0000,  0.0000)
  26 Li     5.259794    1.012487    5.431887    ( 0.0000,  0.0000,  0.0000)
  27 Li     3.506414    4.049430    5.431887    ( 0.0000,  0.0000,  0.0000)
  28 Li     3.506429    0.000182    7.378027    ( 0.0000,  0.0000,  0.0000)
  29 Li     1.753049    3.037125    7.378027    ( 0.0000,  0.0000,  0.0000)
  30 Li     7.013139    0.000182    7.378027    ( 0.0000,  0.0000,  0.0000)
  31 Li     5.259759    3.037125    7.378027    ( 0.0000,  0.0000,  0.0000)
  32 Li    -0.000297    2.024791    7.378027    ( 0.0000,  0.0000,  0.0000)
  33 Li    -1.753677    5.061734    7.378027    ( 0.0000,  0.0000,  0.0000)
  34 Li     3.506413    2.024791    7.378027    ( 0.0000,  0.0000,  0.0000)
  35 Li     1.753033    5.061734    7.378027    ( 0.0000,  0.0000,  0.0000)
  36 Li     1.753067    1.012493    9.352890    ( 0.0000,  0.0000,  0.0000)
  37 Li    -0.000314    4.049436    9.352893    ( 0.0000,  0.0000,  0.0000)
  38 Li     5.259777    1.012494    9.352892    ( 0.0000,  0.0000,  0.0000)
  39 Li     3.506396    4.049437    9.357554    ( 0.0000,  0.0000,  0.0000)
  40 Li     3.506399    0.000198   11.319462    ( 0.0000,  0.0000,  0.0000)
  41 Li     1.751534    3.036272   11.316573    ( 0.0000,  0.0000,  0.0000)
  42 Li     7.013120    0.001921   11.316579    ( 0.0000,  0.0000,  0.0000)
  43 Li     5.261227    3.036277   11.316657    ( 0.0000,  0.0000,  0.0000)
  44 Li    -0.000333    2.024822   11.319462    ( 0.0000,  0.0000,  0.0000)
  45 Li    -1.752214    5.062622   11.316634    ( 0.0000,  0.0000,  0.0000)
  46 Li     3.506386    2.023096   11.316628    ( 0.0000,  0.0000,  0.0000)
  47 Li     1.751507    5.062626   11.316547    ( 0.0000,  0.0000,  0.0000)
  48 N      1.753084    1.012487    3.439048    ( 0.0000,  0.0000,  0.0000)
  49 N     -0.000296    4.049430    3.439048    ( 0.0000,  0.0000,  0.0000)
  50 N      5.259794    1.012487    3.439048    ( 0.0000,  0.0000,  0.0000)
  51 N      3.506414    4.049430    3.439048    ( 0.0000,  0.0000,  0.0000)
  52 N      1.753031    1.012517    7.360963    ( 0.0000,  0.0000,  0.0000)
  53 N     -0.000349    4.049460    7.360963    ( 0.0000,  0.0000,  0.0000)
  54 N      5.259741    1.012517    7.360963    ( 0.0000,  0.0000,  0.0000)
  55 N      3.506361    4.049460    7.360963    ( 0.0000,  0.0000,  0.0000)
  56 N      1.753005    1.012526   11.297201    ( 0.0000,  0.0000,  0.0000)
  57 N     -0.000361    4.049468   11.297210    ( 0.0000,  0.0000,  0.0000)
  58 N      5.259721    1.012514   11.297209    ( 0.0000,  0.0000,  0.0000)
  59 N      3.506317    4.049477   11.322003    ( 0.0000,  0.0000,  0.0000)
  60 N      1.752638    1.012783   15.220903    ( 0.0000,  0.0000,  0.0000)
  61 N     -0.000024    4.049678   15.220964    ( 0.0000,  0.0000,  0.0000)
  62 N      5.259665    1.012137   15.220956    ( 0.0000,  0.0000,  0.0000)
  63 N      3.507578    4.048874   15.368767    ( 0.0000,  0.0000,  0.0000)
  64 Li     3.535624    4.035120   17.236741    ( 0.0000,  0.0000,  0.0000)

Unit cell:
           periodic     x           y           z      points  spacing
  1. axis:    yes    7.013420    0.000000    0.000000    40     0.1518
  2. axis:    yes   -3.506760    6.073886    0.000000    40     0.1518
  3. axis:    yes    0.000000    0.000000   29.936001   160     0.1871

  Lengths:   7.013420   7.013520  29.936001
  Angles:   90.000000  90.000000 120.000000

Effective grid spacing dv^(1/3) = 0.1708

                     log10-error:    total        iterations:
           time      wfs    density  energy       fermi  poisson
iter:   1  20:22:13  -2.77         -234.587032    4             
iter:   2  20:22:31  -3.53  -1.97  -234.799636    32            
iter:   3  20:22:49  -4.25  -1.84  -234.582732    4             
iter:   4  20:23:07  -4.43  -2.18  -234.536657    4             
iter:   5  20:23:25  -4.78  -2.51  -234.531967    3             
iter:   6  20:23:43  -3.88  -2.60  -234.526145    3             
iter:   7  20:24:01  -4.85  -2.89  -234.523650    2             
iter:   8  20:24:19  -5.54  -3.13  -234.526689    2             
iter:   9  20:24:37  -5.62  -2.87  -234.521562    3             
iter:  10  20:24:55  -5.65  -3.29  -234.522434    3             
iter:  11  20:25:14  -6.90  -3.66  -234.522265    2             
iter:  12  20:25:32  -6.12  -3.70  -234.522268    2             
iter:  13  20:25:50  -7.29  -3.79  -234.522206    2             
iter:  14  20:26:08  -7.22  -3.80  -234.522232    2             
iter:  15  20:26:26  -7.21  -3.83  -234.522482    2             
iter:  16  20:26:44  -7.42  -3.91  -234.522268    2             
iter:  17  20:27:02  -7.68  -3.89  -234.522470    2             
iter:  18  20:27:20  -7.49  -4.08  -234.522364    2             

Converged after 18 iterations.

Dipole moment: (-1.430697, 1.899961, -11.341860) |e|*Ang

Energy contributions relative to reference atoms: (reference = -33644.147259)

Kinetic:       +261.457057
Potential:     -192.653385
External:        +0.000000
XC:            -301.994278
Entropy (-ST):   -0.096754
Local:           -1.283381
--------------------------
Free energy:   -234.570741
Extrapolated:  -234.522364

Fermi level: -0.28909

Showing only first 2 kpts
 Kpt  Band  Eigenvalues  Occupancy
  0    62     -0.41716    0.07427
  0    63     -0.12761    0.00305
  0    64     -0.12756    0.00304
  0    65      0.21303    0.00000

  1    62     -0.45854    0.15478
  1    63     -0.36171    0.12966
  1    64     -0.23927    0.04314
  1    65      0.35374    0.00000


No gap

Forces in eV/Ang:
  0 Li   -0.00007    0.00005   -0.03795
  1 Li   -0.00007    0.00005   -0.03795
  2 Li   -0.00007    0.00005   -0.03795
  3 Li   -0.00007    0.00005   -0.03813
  4 Li   -0.00120    0.00117   -0.08654
  5 Li    0.00538    0.00072   -0.08661
  6 Li    0.00170   -0.00475   -0.08659
  7 Li   -0.00555    0.00273   -0.05510
  8 Li   -0.00222    0.00108    0.07812
  9 Li    0.01978    0.01071   -0.05186
 10 Li    0.00069   -0.02242   -0.05269
 11 Li   -0.01915    0.01115   -0.06337
 12 Li   -0.00234    0.00117    0.07812
 13 Li   -0.01890   -0.01166   -0.06005
 14 Li    0.00070    0.02222   -0.05916
 15 Li    0.01965   -0.01128   -0.04871
 16 Li    0.00001   -0.00012   -0.03505
 17 Li   -0.00015   -0.00021   -0.03523
 18 Li    0.00001    0.00007   -0.03523
 19 Li    0.00017   -0.00021   -0.03523
 20 Li   -0.00007    0.00007   -0.03505
 21 Li    0.00009    0.00017   -0.03523
 22 Li   -0.00007   -0.00011   -0.03523
 23 Li   -0.00023    0.00016   -0.03523
 24 Li   -0.00002    0.00001   -0.02930
 25 Li   -0.00001    0.00001   -0.02930
 26 Li   -0.00001    0.00001   -0.02930
 27 Li   -0.00002    0.00001   -0.02909
 28 Li   -0.00007    0.00001    0.01617
 29 Li   -0.00165   -0.00089    0.01525
 30 Li   -0.00008    0.00184    0.01525
 31 Li    0.00150   -0.00089    0.01527
 32 Li   -0.00016    0.00020    0.01617
 33 Li    0.00142    0.00111    0.01527
 34 Li   -0.00016   -0.00162    0.01527
 35 Li   -0.00174    0.00111    0.01524
 36 Li   -0.00001   -0.00001    0.00287
 37 Li   -0.00018    0.00000    0.00288
 38 Li   -0.00009    0.00014    0.00288
 39 Li    0.00008   -0.00004    0.04935
 40 Li   -0.00023    0.00012    0.00740
 41 Li    0.01354    0.00778    0.03048
 42 Li    0.00004   -0.01562    0.03048
 43 Li   -0.01367    0.00791    0.03047
 44 Li   -0.00023    0.00011    0.00740
 45 Li   -0.01361   -0.00791    0.03047
 46 Li    0.00005    0.01573    0.03047
 47 Li    0.01348   -0.00778    0.03049
 48 N    -0.00018    0.00017    0.04797
 49 N    -0.00018    0.00018    0.04798
 50 N    -0.00018    0.00018    0.04798
 51 N    -0.00017    0.00017    0.06314
 52 N    -0.00005   -0.00004    0.04001
 53 N    -0.00001   -0.00004    0.04003
 54 N    -0.00003   -0.00007    0.04003
 55 N    -0.00009   -0.00002    0.07083
 56 N    -0.00008    0.00004   -0.01039
 57 N    -0.00028    0.00006   -0.01035
 58 N    -0.00017    0.00021   -0.01036
 59 N     0.00032   -0.00014    0.05970
 60 N     0.00467   -0.00299   -0.03261
 61 N    -0.00331   -0.00245   -0.03283
 62 N     0.00115    0.00419   -0.03279
 63 N     0.00765   -0.00375    0.22726
 64 Li   -0.01084    0.00532   -0.14708

System changes: positions 

Initializing position-dependent things.

Density initialized from wave functions
                                         
                                         
                                         
                                         
                       Li                
                                         
           Li      Li                    
              N   Li   N  Li             
             Li      Li                  
              LiN   Li LiN  Li           
                                         
           Li   Li Li    Li              
              N   Li   N  Li             
             Li      Li                  
              LiN   Li LiN  Li           
                                         
           Li N Li Li  N Li              
                  Li      Li             
             Li N    Li  N               
              Li    Li Li   Li           
                                         
           Li N Li Li  N Li              
                  Li      Li             
             Li N    Li  N               
              Li    Li Li   Li           
                                         
                Li       Li              
                                         
                                         
                                         
                                         

Positions:
   0 Li     1.753189    1.012426    1.530029    ( 0.0000,  0.0000,  0.0000)
   1 Li    -0.000191    4.049369    1.530029    ( 0.0000,  0.0000,  0.0000)
   2 Li     5.259899    1.012426    1.530029    ( 0.0000,  0.0000,  0.0000)
   3 Li     3.506519    4.049369    1.530029    ( 0.0000,  0.0000,  0.0000)
   4 Li     1.752964    1.012584   13.299146    ( 0.0000,  0.0000,  0.0000)
   5 Li     0.000015    4.049498   13.299174    ( 0.0000,  0.0000,  0.0000)
   6 Li     5.259864    1.012196   13.299169    ( 0.0000,  0.0000,  0.0000)
   7 Li     3.506263    4.049505   13.372321    ( 0.0000,  0.0000,  0.0000)
   8 Li     3.507307   -0.000231   15.418975    ( 0.0000,  0.0000,  0.0000)
   9 Li     1.728948    3.023134   15.348777    ( 0.0000,  0.0000,  0.0000)
  10 Li     7.013220    0.028247   15.347968    ( 0.0000,  0.0000,  0.0000)
  11 Li     5.286011    3.021985   15.337391    ( 0.0000,  0.0000,  0.0000)
  12 Li     0.000594    2.024376   15.418976    ( 0.0000,  0.0000,  0.0000)
  13 Li    -1.728021    5.076520   15.340735    ( 0.0000,  0.0000,  0.0000)
  14 Li     3.506467    1.995405   15.341618    ( 0.0000,  0.0000,  0.0000)
  15 Li     1.729458    5.075380   15.351793    ( 0.0000,  0.0000,  0.0000)
  16 Li     3.506465    0.000182    3.465092    ( 0.0000,  0.0000,  0.0000)
  17 Li     1.753085    3.037125    3.465092    ( 0.0000,  0.0000,  0.0000)
  18 Li     7.013175    0.000182    3.465092    ( 0.0000,  0.0000,  0.0000)
  19 Li     5.259795    3.037125    3.465092    ( 0.0000,  0.0000,  0.0000)
  20 Li    -0.000262    2.024791    3.465092    ( 0.0000,  0.0000,  0.0000)
  21 Li    -1.753642    5.061734    3.465092    ( 0.0000,  0.0000,  0.0000)
  22 Li     3.506448    2.024791    3.465092    ( 0.0000,  0.0000,  0.0000)
  23 Li     1.753068    5.061734    3.465092    ( 0.0000,  0.0000,  0.0000)
  24 Li     1.753084    1.012487    5.431887    ( 0.0000,  0.0000,  0.0000)
  25 Li    -0.000296    4.049430    5.431887    ( 0.0000,  0.0000,  0.0000)
  26 Li     5.259794    1.012487    5.431887    ( 0.0000,  0.0000,  0.0000)
  27 Li     3.506414    4.049430    5.431887    ( 0.0000,  0.0000,  0.0000)
  28 Li     3.506429    0.000182    7.378027    ( 0.0000,  0.0000,  0.0000)
  29 Li     1.753049    3.037125    7.378027    ( 0.0000,  0.0000,  0.0000)
  30 Li     7.013139    0.000182    7.378027    ( 0.0000,  0.0000,  0.0000)
  31 Li     5.259759    3.037125    7.378027    ( 0.0000,  0.0000,  0.0000)
  32 Li    -0.000297    2.024791    7.378027    ( 0.0000,  0.0000,  0.0000)
  33 Li    -1.753677    5.061734    7.378027    ( 0.0000,  0.0000,  0.0000)
  34 Li     3.506413    2.024791    7.378027    ( 0.0000,  0.0000,  0.0000)
  35 Li     1.753033    5.061734    7.378027    ( 0.0000,  0.0000,  0.0000)
  36 Li     1.753066    1.012493    9.352959    ( 0.0000,  0.0000,  0.0000)
  37 Li    -0.000319    4.049437    9.352962    ( 0.0000,  0.0000,  0.0000)
  38 Li     5.259774    1.012497    9.352961    ( 0.0000,  0.0000,  0.0000)
  39 Li     3.506396    4.049436    9.358785    ( 0.0000,  0.0000,  0.0000)
  40 Li     3.506393    0.000202   11.319602    ( 0.0000,  0.0000,  0.0000)
  41 Li     1.751627    3.036327   11.316825    ( 0.0000,  0.0000,  0.0000)
  42 Li     7.013119    0.001812   11.316832    ( 0.0000,  0.0000,  0.0000)
  43 Li     5.261127    3.036335   11.316916    ( 0.0000,  0.0000,  0.0000)
  44 Li    -0.000340    2.024826   11.319602    ( 0.0000,  0.0000,  0.0000)
  45 Li    -1.752313    5.062567   11.316891    ( 0.0000,  0.0000,  0.0000)
  46 Li     3.506384    2.023210   11.316885    ( 0.0000,  0.0000,  0.0000)
  47 Li     1.751599    5.062574   11.316798    ( 0.0000,  0.0000,  0.0000)
  48 N      1.753084    1.012487    3.439048    ( 0.0000,  0.0000,  0.0000)
  49 N     -0.000296    4.049430    3.439048    ( 0.0000,  0.0000,  0.0000)
  50 N      5.259794    1.012487    3.439048    ( 0.0000,  0.0000,  0.0000)
  51 N      3.506414    4.049430    3.439048    ( 0.0000,  0.0000,  0.0000)
[...]
iter:   1  22:48:39  -3.27         -234.947902    4             
iter:   2  22:48:58  -3.52  -2.02  -235.134563    29            
iter:   3  22:49:16  -4.17  -1.88  -234.926060    4             
iter:   4  22:49:34  -4.40  -2.30  -234.896378    3             
iter:   5  22:49:52  -4.81  -2.62  -234.900319    3             
iter:   6  22:50:10  -5.22  -2.79  -234.895323    3             
iter:   7  22:50:28  -5.57  -2.59  -234.895037    3             
iter:   8  22:50:46  -6.11  -3.26  -234.895771    2             
iter:   9  22:51:04  -6.57  -3.58  -234.896126    2             
iter:  10  22:51:22  -6.79  -3.54  -234.895605    2             
iter:  11  22:51:40  -7.72  -3.91  -234.895668    2             
iter:  12  22:51:59  -7.63  -4.05  -234.895764    2             

Converged after 12 iterations.

Dipole moment: (-1.716387, 1.241258, -11.324703) |e|*Ang

Energy contributions relative to reference atoms: (reference = -33644.147259)

Kinetic:       +256.484744
Potential:     -189.884902
External:        +0.000000
XC:            -300.175258
Entropy (-ST):   -0.076372
Local:           -1.282163
--------------------------
Free energy:   -234.933950
Extrapolated:  -234.895764

Fermi level: -0.19455

Showing only first 2 kpts
 Kpt  Band  Eigenvalues  Occupancy
  0    62     -0.55643    0.07994
  0    63      0.02419    0.00099
  0    64      0.02433    0.00099
  0    65      0.23101    0.00002

  1    62     -0.63594    0.15998
  1    63     -0.25848    0.12515
  1    64     -0.08109    0.01499
  1    65      0.41751    0.00000


No gap

Forces in eV/Ang:
  0 Li   -0.00007    0.00005   -0.05338
  1 Li   -0.00008    0.00005   -0.05338
  2 Li   -0.00008    0.00005   -0.05338
  3 Li   -0.00007    0.00005   -0.05324
  4 Li   -0.00038   -0.00069    0.00862
  5 Li   -0.01050    0.00000    0.00868
  6 Li   -0.00484    0.00841    0.00867
  7 Li    0.01140   -0.00557   -0.00567
  8 Li   -0.00592    0.00296   -0.00431
  9 Li   -0.01080   -0.00303   -0.00283
 10 Li   -0.00298    0.01015   -0.00375
 11 Li    0.00104   -0.00091   -0.01514
 12 Li   -0.00566    0.00277   -0.00431
 13 Li    0.00199    0.00468   -0.01150
 14 Li   -0.00320   -0.00485   -0.01056
 15 Li   -0.01175    0.00654    0.00035
 16 Li    0.00002   -0.00012   -0.04433
 17 Li    0.00006   -0.00007   -0.04428
 18 Li   -0.00001   -0.00018   -0.04429
 19 Li   -0.00004   -0.00009   -0.04442
 20 Li   -0.00006    0.00006   -0.04433
 21 Li   -0.00013    0.00005   -0.04438
 22 Li   -0.00009    0.00013   -0.04437
 23 Li   -0.00002    0.00004   -0.04424
 24 Li   -0.00006    0.00005   -0.05508
 25 Li    0.00018    0.00004   -0.05510
 26 Li    0.00004   -0.00017   -0.05509
 27 Li   -0.00018    0.00009   -0.06130
 28 Li   -0.00052    0.00025    0.00726
 29 Li   -0.00367   -0.00244   -0.00258
 30 Li    0.00027    0.00432   -0.00224
 31 Li    0.00308   -0.00178    0.00177
 32 Li   -0.00058    0.00040    0.00726
 33 Li    0.00331    0.00188    0.00056
 34 Li    0.00016   -0.00368    0.00023
 35 Li   -0.00407    0.00251   -0.00384
 36 Li    0.00119   -0.00125    0.01276
 37 Li   -0.00661   -0.00073    0.01303
 38 Li   -0.00225    0.00576    0.01294
 39 Li    0.00670   -0.00328   -0.03855
 40 Li    0.00180   -0.00086    0.00438
 41 Li    0.00894    0.00561    0.01420
 42 Li   -0.00041   -0.01069    0.01515
 43 Li   -0.01100    0.00632    0.02676
 44 Li    0.00179   -0.00089    0.00439
 45 Li   -0.01069   -0.00568    0.02325
 46 Li   -0.00047    0.01187    0.02230
 47 Li    0.00859   -0.00502    0.01062
 48 N    -0.00012    0.00012    0.09455
 49 N    -0.00039    0.00014    0.09457
 50 N    -0.00024    0.00037    0.09456
 51 N     0.00002    0.00008    0.08267
 52 N    -0.00062    0.00045    0.08254
 53 N     0.00172    0.00028    0.08242
 54 N     0.00041   -0.00166    0.08247
 55 N    -0.00220    0.00101   -0.04947
 56 N    -0.00328    0.00244   -0.00520
 57 N     0.00600    0.00179   -0.00494
 58 N     0.00083   -0.00590   -0.00495
 59 N    -0.00280    0.00141   -0.04731
 60 N     0.00416    0.00065    0.01521
 61 N     0.03453   -0.00154    0.01547
 62 N     0.01753   -0.02663    0.01547
 63 N    -0.01651    0.00807    0.06990
 64 Li    0.00486   -0.00238   -0.00055

System changes: positions 

Initializing position-dependent things.

Density initialized from wave functions
                                         
                                         
                                         
                                         
                                         
                       Li                
           Li      Li                    
             Li  Li    N  Li             
                    Lii                  
              LiN      LiN   Li          
                                         
           Li N Li Li    Li              
                  Li   N  Li             
             Li N    Li  N               
              Li    Li Li   Li           
                                         
           Li N Li Li  N Li              
                  Li      Li             
             Li N    Li  N               
              Li    Li Li   Li           
           Li      Li                    
              N Li     N Li              
             Li   Li Li   Li             
                N        N               
              Li    Li Li   Li           
                                         
                Li       Li              
                                         
                                         
                                         
                                         

Positions:
   0 Li     1.753189    1.012426    1.530029    ( 0.0000,  0.0000,  0.0000)
   1 Li    -0.000191    4.049369    1.530029    ( 0.0000,  0.0000,  0.0000)
   2 Li     5.259899    1.012426    1.530029    ( 0.0000,  0.0000,  0.0000)
   3 Li     3.506519    4.049369    1.530029    ( 0.0000,  0.0000,  0.0000)
   4 Li     1.747518    1.016649   13.305649    ( 0.0000,  0.0000,  0.0000)
   5 Li     0.009973    4.052539   13.305689    ( 0.0000,  0.0000,  0.0000)
   6 Li     5.261206    1.002395   13.305695    ( 0.0000,  0.0000,  0.0000)
   7 Li     3.495708    4.054746   13.174521    ( 0.0000,  0.0000,  0.0000)
   8 Li     3.501290    0.002772   16.095439    ( 0.0000,  0.0000,  0.0000)
   9 Li     1.679342    2.996170   15.130644    ( 0.0000,  0.0000,  0.0000)
  10 Li     7.011704    0.084815   15.128634    ( 0.0000,  0.0000,  0.0000)
  11 Li     5.335678    2.993238   15.102286    ( 0.0000,  0.0000,  0.0000)
  12 Li    -0.005524    2.027452   16.095437    ( 0.0000,  0.0000,  0.0000)
  13 Li    -1.679316    5.106386   15.110510    ( 0.0000,  0.0000,  0.0000)
  14 Li     3.504898    1.938487   15.112691    ( 0.0000,  0.0000,  0.0000)
  15 Li     1.680627    5.103510   15.138386    ( 0.0000,  0.0000,  0.0000)
  16 Li     3.506465    0.000182    3.465092    ( 0.0000,  0.0000,  0.0000)
  17 Li     1.753085    3.037125    3.465092    ( 0.0000,  0.0000,  0.0000)
  18 Li     7.013175    0.000182    3.465092    ( 0.0000,  0.0000,  0.0000)
  19 Li     5.259795    3.037125    3.465092    ( 0.0000,  0.0000,  0.0000)
  20 Li    -0.000262    2.024791    3.465092    ( 0.0000,  0.0000,  0.0000)
  21 Li    -1.753642    5.061734    3.465092    ( 0.0000,  0.0000,  0.0000)
  22 Li     3.506448    2.024791    3.465092    ( 0.0000,  0.0000,  0.0000)
  23 Li     1.753068    5.061734    3.465092    ( 0.0000,  0.0000,  0.0000)
  24 Li     1.753084    1.012487    5.431887    ( 0.0000,  0.0000,  0.0000)
  25 Li    -0.000296    4.049430    5.431887    ( 0.0000,  0.0000,  0.0000)
  26 Li     5.259794    1.012487    5.431887    ( 0.0000,  0.0000,  0.0000)
  27 Li     3.506414    4.049430    5.431887    ( 0.0000,  0.0000,  0.0000)
  28 Li     3.506429    0.000182    7.378027    ( 0.0000,  0.0000,  0.0000)
  29 Li     1.753049    3.037125    7.378027    ( 0.0000,  0.0000,  0.0000)
  30 Li     7.013139    0.000182    7.378027    ( 0.0000,  0.0000,  0.0000)
  31 Li     5.259759    3.037125    7.378027    ( 0.0000,  0.0000,  0.0000)
  32 Li    -0.000297    2.024791    7.378027    ( 0.0000,  0.0000,  0.0000)
  33 Li    -1.753677    5.061734    7.378027    ( 0.0000,  0.0000,  0.0000)
  34 Li     3.506413    2.024791    7.378027    ( 0.0000,  0.0000,  0.0000)
  35 Li     1.753033    5.061734    7.378027    ( 0.0000,  0.0000,  0.0000)
  36 Li     1.752160    1.013217    9.352965    ( 0.0000,  0.0000,  0.0000)
  37 Li     0.001697    4.049955    9.352912    ( 0.0000,  0.0000,  0.0000)
  38 Li     5.260153    1.010590    9.352933    ( 0.0000,  0.0000,  0.0000)
  39 Li     3.503115    4.051066    9.316796    ( 0.0000,  0.0000,  0.0000)
  40 Li     3.504517    0.001176   11.402364    ( 0.0000,  0.0000,  0.0000)
  41 Li     1.748475    3.035194   11.267110    ( 0.0000,  0.0000,  0.0000)
  42 Li     7.012526    0.005025   11.267279    ( 0.0000,  0.0000,  0.0000)
  43 Li     5.262109    3.035772   11.268554    ( 0.0000,  0.0000,  0.0000)
  44 Li    -0.002215    2.025801   11.402409    ( 0.0000,  0.0000,  0.0000)
  45 Li    -1.751056    5.063980   11.268253    ( 0.0000,  0.0000,  0.0000)
  46 Li     3.505792    2.021341   11.268195    ( 0.0000,  0.0000,  0.0000)
  47 Li     1.748165    5.064561   11.266565    ( 0.0000,  0.0000,  0.0000)
  48 N      1.753084    1.012487    3.439048    ( 0.0000,  0.0000,  0.0000)
  49 N     -0.000296    4.049430    3.439048    ( 0.0000,  0.0000,  0.0000)
  50 N      5.259794    1.012487    3.439048    ( 0.0000,  0.0000,  0.0000)
  51 N      3.506414    4.049430    3.439048    ( 0.0000,  0.0000,  0.0000)
  52 N      1.753031    1.012517    7.360963    ( 0.0000,  0.0000,  0.0000)
  53 N     -0.000349    4.049460    7.360963    ( 0.0000,  0.0000,  0.0000)
  54 N      5.259741    1.012517    7.360963    ( 0.0000,  0.0000,  0.0000)
  55 N      3.506361    4.049460    7.360963    ( 0.0000,  0.0000,  0.0000)
  56 N      1.751748    1.013249   11.309186    ( 0.0000,  0.0000,  0.0000)
  57 N     -0.001032    4.050153   11.309150    ( 0.0000,  0.0000,  0.0000)
  58 N      5.258721    1.012708   11.309166    ( 0.0000,  0.0000,  0.0000)
  59 N      3.504715    4.050317   11.227449    ( 0.0000,  0.0000,  0.0000)
  60 N      1.749441    1.014235   15.288875    ( 0.0000,  0.0000,  0.0000)
  61 N     -0.005295    4.051284   15.289020    ( 0.0000,  0.0000,  0.0000)
  62 N      5.255552    1.015450   15.289002    ( 0.0000,  0.0000,  0.0000)
  63 N      3.506824    4.049311   15.078116    ( 0.0000,  0.0000,  0.0000)
  64 Li     3.554416    4.025927   16.921684    ( 0.0000,  0.0000,  0.0000)

Unit cell:
           periodic     x           y           z      points  spacing
  1. axis:    yes    7.013420    0.000000    0.000000    40     0.1518
  2. axis:    yes   -3.506760    6.073886    0.000000    40     0.1518
  3. axis:    yes    0.000000    0.000000   29.936001   160     0.1871

  Lengths:   7.013420   7.013520  29.936001
  Angles:   90.000000  90.000000 120.000000

Effective grid spacing dv^(1/3) = 0.1708

                     log10-error:    total        iterations:
           time      wfs    density  energy       fermi  poisson
iter:   1  22:52:34  -4.03         -234.900361    3             
iter:   2  22:52:52  -4.27  -2.41  -234.965370    3             
iter:   3  22:53:10  -4.84  -2.21  -234.902040    3             
iter:   4  22:53:29  -5.08  -2.76  -234.895037    3             
iter:   5  22:53:47  -5.74  -2.83  -234.897905    3             
iter:   6  22:54:05  -6.73  -3.17  -234.896521    2             
iter:   7  22:54:23  -6.37  -3.61  -234.896313    2             
iter:   8  22:54:41  -6.92  -3.95  -234.896416    2             
iter:   9  22:54:59  -7.21  -3.91  -234.896536    2             
iter:  10  22:55:17  -7.42  -3.90  -234.896348    2             
iter:  11  22:55:36  -8.59  -4.37  -234.896349    2             

Converged after 11 iterations.

Dipole moment: (-1.716339, 1.240422, -11.327820) |e|*Ang

Energy contributions relative to reference atoms: (reference = -33644.147259)

Kinetic:       +256.510370
Potential:     -189.897932
External:        +0.000000
XC:            -300.189835
Entropy (-ST):   -0.076366
Local:           -1.280770
--------------------------
Free energy:   -234.934532
Extrapolated:  -234.896349

Fermi level: -0.19718

Showing only first 2 kpts
 Kpt  Band  Eigenvalues  Occupancy
  0    62     -0.55616    0.07994
  0    63      0.02204    0.00099
  0    64      0.02217    0.00098
  0    65      0.22977    0.00002

  1    62     -0.63491    0.15997
  1    63     -0.26026    0.12469
  1    64     -0.08356    0.01495
  1    65      0.41539    0.00000


No gap

Forces in eV/Ang:
  0 Li   -0.00007    0.00005   -0.05279
  1 Li   -0.00007    0.00005   -0.05279
  2 Li   -0.00007    0.00005   -0.05279
  3 Li   -0.00008    0.00005   -0.05261
  4 Li   -0.00119   -0.00009   -0.00186
  5 Li   -0.00891    0.00044   -0.00182
  6 Li   -0.00459    0.00686   -0.00181
  7 Li    0.01060   -0.00518    0.00513
  8 Li   -0.00755    0.00375    0.00589
  9 Li   -0.00767   -0.00156    0.00227
 10 Li   -0.00265    0.00689    0.00163
 11 Li    0.00025   -0.00039   -0.00609
 12 Li   -0.00740    0.00364    0.00589
 13 Li    0.00075    0.00346   -0.00362
 14 Li   -0.00276   -0.00298   -0.00298
 15 Li   -0.00820    0.00451    0.00443
 16 Li    0.00001   -0.00012   -0.04354
 17 Li    0.00006   -0.00008   -0.04353
 18 Li   -0.00000   -0.00018   -0.04354
 19 Li   -0.00004   -0.00009   -0.04365
 20 Li   -0.00007    0.00007   -0.04354
 21 Li   -0.00013    0.00005   -0.04362
 22 Li   -0.00008    0.00013   -0.04361
 23 Li   -0.00002    0.00004   -0.04350
 24 Li   -0.00007    0.00006   -0.05441
 25 Li    0.00022    0.00004   -0.05442
 26 Li    0.00006   -0.00020   -0.05442
 27 Li   -0.00021    0.00010   -0.06109
 28 Li   -0.00057    0.00027    0.00929
 29 Li   -0.00412   -0.00277   -0.00161
 30 Li    0.00034    0.00486   -0.00118
 31 Li    0.00346   -0.00199    0.00382
 32 Li   -0.00062    0.00043    0.00929
 33 Li    0.00375    0.00205    0.00230
 34 Li    0.00023   -0.00416    0.00190
 35 Li   -0.00458    0.00280   -0.00317
 36 Li    0.00142   -0.00151    0.00674
 37 Li   -0.00796   -0.00087    0.00694
 38 Li   -0.00271    0.00694    0.00686
 39 Li    0.00819   -0.00401   -0.03501
 40 Li    0.00209   -0.00100    0.00517
 41 Li    0.01157    0.00727    0.01325
 42 Li   -0.00054   -0.01379    0.01409
 43 Li   -0.01364    0.00783    0.02442
 44 Li    0.00209   -0.00104    0.00518
 45 Li   -0.01339   -0.00712    0.02129
 46 Li   -0.00059    0.01493    0.02045
 47 Li    0.01131   -0.00660    0.01008
 48 N    -0.00015    0.00014    0.09639
 49 N    -0.00032    0.00016    0.09641
 50 N    -0.00022    0.00030    0.09641
 51 N    -0.00006    0.00012    0.08445
 52 N    -0.00068    0.00051    0.09007
 53 N     0.00204    0.00032    0.08998
 54 N     0.00051   -0.00194    0.09002
 55 N    -0.00253    0.00118   -0.04962
 56 N    -0.00230    0.00178   -0.01011
 57 N     0.00502    0.00128   -0.00987
 58 N     0.00094   -0.00479   -0.00988
 59 N    -0.00290    0.00145   -0.03918
 60 N     0.00316    0.00076    0.01434
 61 N     0.02933   -0.00113    0.01459
 62 N     0.01469   -0.02275    0.01459
 63 N    -0.01489    0.00728    0.02371
 64 Li    0.00642   -0.00315    0.01499

Timing:                                      incl.     excl.
-------------------------------------------------------------------
Density initialized from wave functions:   109.031   109.029   1.0% |
 Symmetrize density:                         0.001     0.001   0.0% |
Forces:                                    429.409   429.409   3.9% |-|
Hamiltonian:                                51.397     0.206   0.0% |
 Atomic:                                     4.575     0.673   0.0% |
  XC Correction:                             3.902     3.902   0.0% |
 Calculate atomic Hamiltonians:             37.174    37.174   0.3% |
 Communicate:                                1.904     1.904   0.0% |
 Initialize Hamiltonian:                     0.001     0.001   0.0% |
 Poisson:                                    0.099     0.099   0.0% |
 XC 3D grid:                                 7.440     7.440   0.1% |
LCAO initialization:                        10.577     0.083   0.0% |
 LCAO eigensolver:                           2.698     0.000   0.0% |
  Calculate projections:                     0.012     0.012   0.0% |
  DenseAtomicCorrection:                     0.015     0.015   0.0% |
  Distribute overlap matrix:                 0.757     0.757   0.0% |
  Orbital Layouts:                           0.094     0.094   0.0% |
  Potential matrix:                          1.815     1.815   0.0% |
  Sum over cells:                            0.004     0.004   0.0% |
 LCAO to grid:                               6.321     6.321   0.1% |
 Set positions (LCAO WFS):                   1.475     0.342   0.0% |
  Basic WFS set positions:                   0.003     0.003   0.0% |
  Basis functions set positions:             0.001     0.001   0.0% |
  P tci:                                     0.531     0.531   0.0% |
  ST tci:                                    0.245     0.245   0.0% |
  mktci:                                     0.354     0.354   0.0% |
PWDescriptor:                                0.402     0.402   0.0% |
Redistribute:                                0.087     0.087   0.0% |
SCF-cycle:                               10393.964  4555.247  40.9% |---------------|
 Davidson:                                4444.621  2340.501  21.0% |-------|
  Apply H:                                 159.111   155.255   1.4% ||
   HMM T:                                    3.856     3.856   0.0% |
  Subspace diag:                           478.158     0.101   0.0% |
   calc_h_matrix:                          264.998   104.793   0.9% |
    Apply H:                               160.205   156.570   1.4% ||
     HMM T:                                  3.635     3.635   0.0% |
   diagonalize:                              2.592     2.592   0.0% |
   rotate_psi:                             210.468   210.468   1.9% ||
  calc. matrices:                         1026.600   709.870   6.4% |--|
   Apply H:                                316.729   309.160   2.8% ||
    HMM T:                                   7.569     7.569   0.1% |
  diagonalize:                              23.917    23.917   0.2% |
  rotate_psi:                              416.333   416.333   3.7% ||
 Density:                                  700.054     0.013   0.0% |
  Atomic density matrices:                   4.373     4.373   0.0% |
  Mix:                                     512.691   512.691   4.6% |-|
  Multipole moments:                         0.523     0.523   0.0% |
  Pseudo density:                          182.453   182.436   1.6% ||
   Symmetrize density:                       0.018     0.018   0.0% |
 Hamiltonian:                              643.998     2.713   0.0% |
  Atomic:                                   57.202     7.823   0.1% |
   XC Correction:                           49.379    49.379   0.4% |
  Calculate atomic Hamiltonians:           470.825   470.825   4.2% |-|
  Communicate:                              23.169    23.169   0.2% |
  Poisson:                                   1.307     1.307   0.0% |
  XC 3D grid:                               88.782    88.782   0.8% |
 Orthonormalize:                            50.046     0.011   0.0% |
  calc_s_matrix:                             3.619     3.619   0.0% |
  inverse-cholesky:                          0.084     0.084   0.0% |
  projections:                              42.421    42.421   0.4% |
  rotate_psi_s:                              3.911     3.911   0.0% |
Set symmetry:                                0.002     0.002   0.0% |
Other:                                     154.895   154.895   1.4% ||
-------------------------------------------------------------------
Total:                                             11149.765 100.0%

Date: Mon Sep  6 22:55:46 2021
