
  ___ ___ ___ _ _ _  
 |   |   |_  | | | | 
 | | | | | . | | | | 
 |__ |  _|___|_____|  20.1.0
 |___|_|             

User:   jngwng01@n716004
Date:   Mon Sep  6 08:31:24 2021
Arch:   x86_64
Pid:    13406
Python: 3.8.5
gpaw:   /uls/7/gpaw-20.1.0/lib/python3.8/site-packages/gpaw-20.1.0-py3.8-linux-x86_64.egg/gpaw
_gpaw:  /uls/7/gpaw-20.1.0/lib/python3.8/site-packages/gpaw-20.1.0-py3.8-linux-x86_64.egg/
        _gpaw.cpython-38-x86_64-linux-gnu.so
ase:    /uls/7/gpaw-20.1.0/lib/python3.8/site-packages/ase-3.20.1-py3.8.egg/ase (version 3.20.1)
numpy:  /uls/7/gpaw-20.1.0/lib/python3.8/site-packages/numpy (version 1.19.2)
scipy:  /uls/7/gpaw-20.1.0/lib/python3.8/site-packages/scipy-1.5.2-py3.8-linux-x86_64.egg/scipy (version 1.5.2)
libxc:  4.3.4
units:  Angstrom and eV
cores: 32
OMP_NUM_THREADS: 1

Input parameters:
  convergence: {eigenstates: 1e-08}
  kpts: [5 6 1]
  mode: {ecut: 500.0,
         gammacentered: False,
         name: pw}
  occupations: {name: fermi-dirac,
                width: 0.03}
  random: True
  xc: {backend: libvdwxc,
       libvdwxc_name: vdW-DF-cx,
       name: vdW-DF-cx,
       semilocal_xc: GGA_X_LV_RPW86+LDA_C_PW,
       setup_name: PBE,
       vdwcoef: 1.0}

System changes: positions, numbers, cell, pbc, initial_charges, initial_magmoms 

Initialize ...

Li-setup:
  name: Lithium
  id: 830b4218f175192f93f959cfc0aad614
  Z: 3
  valence: 1
  core: 2
  charge: 0.0
  file: /uls/7/gpaw-20.1.0/setups/gpaw-setups-0.9.20000/Li.PBE.gz
  compensation charges: gauss, rc=0.33, lmax=2
  cutoffs: 1.91(filt), 2.55(core),
  valence states:
                energy  radius
    2s(1.00)    -2.874   1.058
    2p(0.00)    -1.090   1.058
    *s          24.337   1.058

  Using partial waves for Li as LCAO basis

N-setup:
  name: Nitrogen
  id: f7500608b86eaa90eef8b1d9a670dc53
  Z: 7
  valence: 5
  core: 2
  charge: 0.0
  file: /uls/7/gpaw-20.1.0/setups/gpaw-setups-0.9.20000/N.PBE.gz
  compensation charges: gauss, rc=0.18, lmax=2
  cutoffs: 1.11(filt), 0.96(core),
  valence states:
                energy  radius
    2s(2.00)   -18.583   0.603
    2p(3.00)    -7.089   0.529
    *s           8.629   0.603
    *p          20.123   0.529
    *d           0.000   0.577

  Using partial waves for N as LCAO basis

Reference energy: -25283.807400

Spin-paired calculation

Occupation numbers:
  Fermi-Dirac: width=0.0300 eV

Convergence criteria:
  Maximum total energy change: 0.0005 eV / electron
  Maximum integral of absolute density change: 0.0001 electrons
  Maximum integral of absolute eigenstate change: 1e-08 eV^2
  Maximum number of iterations: 333

Symmetries present (total): 1

  ( 1  0  0)
  ( 0  1  0)
  ( 0  0  1)

30 k-points: 5 x 6 x 1 Monkhorst-Pack grid
15 k-points in the irreducible part of the Brillouin zone
       k-points in crystal coordinates                weights
   0:     0.00000000    0.08333333    0.00000000          2/30
   1:     0.00000000    0.25000000    0.00000000          2/30
   2:     0.00000000    0.41666667    0.00000000          2/30
   3:     0.20000000   -0.41666667    0.00000000          2/30
   4:     0.20000000   -0.25000000    0.00000000          2/30
   5:     0.20000000   -0.08333333    0.00000000          2/30
   6:     0.20000000    0.08333333    0.00000000          2/30
   7:     0.20000000    0.25000000    0.00000000          2/30
   8:     0.20000000    0.41666667    0.00000000          2/30
   9:     0.40000000   -0.41666667    0.00000000          2/30
          ...
  14:     0.40000000    0.41666667    0.00000000          2/30

Wave functions: Plane wave expansion
  Cutoff energy: 500.000 eV
  Number of coefficients (min, max): 32335, 32478
  Pulay-stress correction: 0.000000 eV/Ang^3 (de/decut=0.000000)
  Using FFTW library
  ScaLapack parameters: grid=1x1, blocksize=None
  Wavefunction extrapolation:
    Improved wavefunction reuse through dual PAW basis 

Eigensolver
   Davidson(niter=2, smin=None, normalize=True) 

Densities:
  Coarse grid: 40*32*160 grid
  Fine grid: 80*64*320 grid
  Total Charge: 0.000000 

Density mixing:
  Method: separate
  Backend: pulay
  Linear mixing parameter: 0.05
  Mixing with 5 old densities
  Damping of long wave oscillations: 50 

Hamiltonian:
  XC and Coulomb potentials evaluated on a 80*64*320 grid
  Using the vdW-DF-cx Exchange-Correlation functional
 

XC parameters: vdW-DF-cx with libvdwxc
  Mode: mpi with 32 cores
  Semilocal: GGA_X_LV_RPW86+LDA_C_PW with 2 nearest neighbor stencil
  Local blocksize: 3 x 64 x 320
  PAW datasets: PBE

Memory estimate:
  Process memory now: 215.00 MiB
  Calculator: 106.40 MiB
    Density: 24.81 MiB
      Arrays: 10.16 MiB
      Localized functions: 10.74 MiB
      Mixer: 3.91 MiB
    Hamiltonian: 6.90 MiB
      Arrays: 6.64 MiB
      XC: 0.00 MiB
      Poisson: 0.00 MiB
      vbar: 0.26 MiB
    Wavefunctions: 74.69 MiB
      Arrays psit_nG: 31.22 MiB
      Eigensolver: 34.31 MiB
      Projections: 0.08 MiB
      Projectors: 1.05 MiB
      PW-descriptor: 8.03 MiB

Total number of cores used: 32
Parallelization over k-points: 8
Domain decomposition: 1 x 1 x 4
                      2 x 2 x 8 (xc only)

Number of atoms: 49
Number of atomic orbitals: 196
Number of bands in calculation: 63
Number of valence electrons: 97
Bands to converge: occupied

... initialized

Initializing position-dependent things.

Density initialized from atomic densities
Creating initial wave functions:
  63 bands from LCAO basis set

     .----------------.  
    /|                |  
   / |                |  
  /  |                |  
 *   |                |  
 |   |                |  
 |   |                |  
 |   |                |  
 |   |                |  
 |   |                |  
 |   |                |  
 |   |                |  
 |   |                |  
 |   |                |  
 |   |                |  
 |   |                |  
 |   |                |  
 |   |                |  
 |   |                |  
 |   |                |  
 |   |                |  
 |   |                |  
 |   |                |  
 |   |                |  
 |   |             Li |  
 |   |                |  
 |  Li   N  Li   N    |  
 |   | Li       Li    |  
 |N  |Li LiN  Li Li   |  
 Li  |    Li          |  
 |Li |   N Li    N    |  
 |  Li      Li        |  
 |N  | Li  N    Li    |  
 |   |Li Li   Li Li   |  
 Li  |    Li          |  
 |Li |   N Li    N    |  
 |  Li      Li        |  
 |N  .-Li--N----Li----.  
 |  / Li Li   Li Li  /   
 Li/      Li        /    
 |/i       Li      /     
 *----------------*      

Positions:
   0 Li     1.753389    5.061850    0.000000    ( 0.0000,  0.0000,  0.0000)
   1 Li     0.000000    2.024928    0.000000    ( 0.0000,  0.0000,  0.0000)
   2 Li     3.506756    2.024928    0.000000    ( 0.0000,  0.0000,  0.0000)
   3 Li     5.260124    5.061850    0.000000    ( 0.0000,  0.0000,  0.0000)
   4 Li     1.753389    3.037256    1.946139    ( 0.0000,  0.0000,  0.0000)
   5 Li     0.000000    0.000334    1.946139    ( 0.0000,  0.0000,  0.0000)
   6 Li     3.506756    0.000334    1.946139    ( 0.0000,  0.0000,  0.0000)
   7 Li     5.260124    3.037256    1.946139    ( 0.0000,  0.0000,  0.0000)
   8 Li     1.753367    1.012631    1.946139    ( 0.0000,  0.0000,  0.0000)
   9 Li     0.000000    4.049553    1.946139    ( 0.0000,  0.0000,  0.0000)
  10 Li     3.506735    4.049553    1.946139    ( 0.0000,  0.0000,  0.0000)
  11 Li     5.260103    1.012631    1.946139    ( 0.0000,  0.0000,  0.0000)
  12 Li     1.753389    5.061850    3.920419    ( 0.0000,  0.0000,  0.0000)
  13 Li     0.000000    2.024928    3.920419    ( 0.0000,  0.0000,  0.0000)
  14 Li     3.506756    2.024928    3.920419    ( 0.0000,  0.0000,  0.0000)
  15 Li     5.260124    5.061850    3.920419    ( 0.0000,  0.0000,  0.0000)
  16 Li     1.753389    3.037256    5.887813    ( 0.0000,  0.0000,  0.0000)
  17 Li     0.000000    0.000334    5.887813    ( 0.0000,  0.0000,  0.0000)
  18 Li     3.506756    0.000334    5.887813    ( 0.0000,  0.0000,  0.0000)
  19 Li     5.260124    3.037256    5.887813    ( 0.0000,  0.0000,  0.0000)
  20 Li     1.753367    1.012631    5.887813    ( 0.0000,  0.0000,  0.0000)
  21 Li     0.000000    4.049553    5.887813    ( 0.0000,  0.0000,  0.0000)
  22 Li     3.506735    4.049553    5.887813    ( 0.0000,  0.0000,  0.0000)
  23 Li     5.260103    1.012631    5.887813    ( 0.0000,  0.0000,  0.0000)
  24 Li     1.753389    5.061850    7.859398    ( 0.0000,  0.0000,  0.0000)
  25 Li     0.000000    2.024928    7.859398    ( 0.0000,  0.0000,  0.0000)
  26 Li     3.506756    2.024928    7.859398    ( 0.0000,  0.0000,  0.0000)
  27 Li     5.260124    5.061850    7.859398    ( 0.0000,  0.0000,  0.0000)
  28 Li     1.753403    3.037286    9.979765    ( 0.0000,  0.0000,  0.0000)
  29 Li     0.000000    0.000364    9.979765    ( 0.0000,  0.0000,  0.0000)
  30 Li     3.506770    0.000364    9.979765    ( 0.0000,  0.0000,  0.0000)
  31 Li     5.260138    3.037286    9.979765    ( 0.0000,  0.0000,  0.0000)
  32 Li     1.753389    1.012661    9.979765    ( 0.0000,  0.0000,  0.0000)
  33 Li     0.000000    4.049583    9.979765    ( 0.0000,  0.0000,  0.0000)
  34 Li     3.506756    4.049583    9.979765    ( 0.0000,  0.0000,  0.0000)
  35 Li     5.260124    1.012661    9.979765    ( 0.0000,  0.0000,  0.0000)
  36 N      1.753389    5.061910    1.929076    ( 0.0000,  0.0000,  0.0000)
  37 N      0.000000    2.024989    1.929076    ( 0.0000,  0.0000,  0.0000)
  38 N      3.506756    2.024989    1.929076    ( 0.0000,  0.0000,  0.0000)
  39 N      5.260124    5.061910    1.929076    ( 0.0000,  0.0000,  0.0000)
  40 N      1.753389    5.061910    5.864163    ( 0.0000,  0.0000,  0.0000)
  41 N      0.000000    2.024989    5.864163    ( 0.0000,  0.0000,  0.0000)
  42 N      3.506756    2.024989    5.864163    ( 0.0000,  0.0000,  0.0000)
  43 N      5.260124    5.061910    5.864163    ( 0.0000,  0.0000,  0.0000)
  44 N      1.753389    5.061910    9.782786    ( 0.0000,  0.0000,  0.0000)
  45 N      0.000000    2.024989    9.782786    ( 0.0000,  0.0000,  0.0000)
  46 N      3.506756    2.024989    9.782786    ( 0.0000,  0.0000,  0.0000)
  47 N      5.260124    5.061910    9.782786    ( 0.0000,  0.0000,  0.0000)
  48 Li     6.995838    1.999309   12.374615    ( 0.0000,  0.0000,  0.0000)

Unit cell:
           periodic     x           y           z      points  spacing
  1. axis:    yes    7.013470    0.000000    0.000000    40     0.1753
  2. axis:    yes    0.000000    6.073843    0.000000    32     0.1898
  3. axis:    yes    0.000000    0.000000   29.936001   160     0.1871

  Lengths:   7.013470   6.073843  29.936001
  Angles:   90.000000  90.000000  90.000000

Effective grid spacing dv^(1/3) = 0.1840

                     log10-error:    total        iterations:
           time      wfs    density  energy       fermi  poisson
iter:   1  08:31:52                -187.121154    3             
iter:   2  08:32:03  -0.99  -0.50  -176.666905    31            
iter:   3  08:32:14  -0.37  -0.56  -179.353335    35            
iter:   4  08:32:25  -1.88  -0.60  -164.755824    33            
iter:   5  08:32:35  -2.63  -0.69  -162.025665    4             
iter:   6  08:32:46  -1.96  -0.71  -157.674529    5             
iter:   7  08:32:57  -1.74  -0.82  -155.912128    4             
iter:   8  08:33:08  -1.74  -0.89  -154.922785    6             
iter:   9  08:33:19  -1.30  -0.96  -155.499605    35            
iter:  10  08:33:30  -1.88  -1.17  -154.514229    4             
iter:  11  08:33:40  -2.77  -1.27  -154.045077    5             
iter:  12  08:33:51  -1.78  -1.33  -154.614304    34            
iter:  13  08:34:02  -2.21  -1.26  -154.401553    3             
iter:  14  08:34:13  -2.12  -1.31  -153.948887    34            
iter:  15  08:34:24  -2.33  -1.44  -154.194445    4             
iter:  16  08:34:34  -2.91  -1.47  -154.225697    4             
iter:  17  08:34:45  -2.51  -1.49  -154.035466    3             
iter:  18  08:34:56  -2.80  -1.69  -153.897299    5             
iter:  19  08:35:07  -3.38  -1.90  -153.884525    3             
iter:  20  08:35:18  -3.97  -1.98  -153.882234    4             
iter:  21  08:35:29  -4.37  -2.09  -153.878885    3             
iter:  22  08:35:40  -3.72  -2.14  -153.867664    3             
iter:  23  08:35:50  -4.02  -2.37  -153.866164    3             
iter:  24  08:36:01  -4.72  -2.67  -153.866096    3             
iter:  25  08:36:12  -4.94  -2.74  -153.865349    2             
iter:  26  08:36:23  -5.83  -2.83  -153.865820    3             
iter:  27  08:36:34  -5.35  -2.87  -153.865616    2             
iter:  28  08:36:44  -6.30  -3.05  -153.865636    2             
iter:  29  08:36:55  -6.17  -3.08  -153.865650    3             
iter:  30  08:37:06  -5.96  -3.12  -153.865726    3             
iter:  31  08:37:17  -6.57  -3.19  -153.865743    2             
iter:  32  08:37:28  -6.06  -3.20  -153.865770    3             
iter:  33  08:37:39  -6.31  -3.36  -153.865891    2             
iter:  34  08:37:49  -7.23  -3.52  -153.865830    2             
iter:  35  08:38:00  -6.56  -3.58  -153.865891    2             
iter:  36  08:38:11  -7.22  -3.71  -153.865852    2             
iter:  37  08:38:22  -7.44  -3.78  -153.865857    2             
iter:  38  08:38:33  -7.85  -3.92  -153.865854    2             
iter:  39  08:38:43  -7.10  -4.04  -153.865849    2             
iter:  40  08:38:54  -7.36  -4.12  -153.865860    1             
iter:  41  08:39:05  -7.75  -4.21  -153.865857    2             
iter:  42  08:39:16  -8.10  -4.27  -153.865859    2             

Converged after 42 iterations.

Dipole moment: (0.188675, -1.800523, 5.852550) |e|*Ang

Energy contributions relative to reference atoms: (reference = -25283.807400)

Kinetic:       +176.784987
Potential:     -128.460168
External:        +0.000000
XC:            -201.158734
Entropy (-ST):   -0.024116
Local:           -1.019886
--------------------------
Free energy:   -153.877917
Extrapolated:  -153.865859

Non-local vdW-DF-cx correlation energy: 15.286396
Semilocal GGA_X_LV_RPW86+LDA_C_PW energy: -1087.939464
(Not including atomic contributions)
Fermi level: -0.81016

Showing only first 2 kpts
 Kpt  Band  Eigenvalues  Occupancy
  0    46     -1.03794    0.13327
  0    47     -0.70516    0.00391
  0    48     -0.63775    0.00042
  0    49     -0.52975    0.00001

  1    46     -1.01322    0.13318
  1    47     -1.00474    0.13313
  1    48     -0.79784    0.05317
  1    49     -0.33193    0.00000


No gap

Forces in eV/Ang:
  0 Li   -0.00003    0.00003   -0.09525
  1 Li    0.00001    0.00002   -0.09553
  2 Li   -0.00001    0.00002   -0.09525
  3 Li    0.00000    0.00002   -0.09525
  4 Li    0.00043    0.00258    0.03464
  5 Li    0.00009    0.00133    0.03485
  6 Li   -0.00009    0.00205    0.03550
  7 Li   -0.00069    0.00261    0.03463
  8 Li    0.00065   -0.00214    0.03464
  9 Li    0.00018   -0.00085    0.03487
 10 Li    0.00018   -0.00157    0.03551
 11 Li   -0.00047   -0.00210    0.03464
 12 Li    0.00102    0.00006    0.08342
 13 Li    0.00003    0.00009    0.08207
 14 Li   -0.00002    0.00009    0.08322
 15 Li   -0.00106    0.00005    0.08342
 16 Li    0.00801    0.00583   -0.01364
 17 Li    0.00014   -0.01184   -0.01149
 18 Li   -0.00014   -0.00168   -0.00198
 19 Li   -0.00827    0.00578   -0.01360
 20 Li    0.00821   -0.00541   -0.01343
 21 Li    0.00023    0.01236   -0.01174
 22 Li    0.00013    0.00216   -0.00210
 23 Li   -0.00803   -0.00528   -0.01339
 24 Li    0.01398    0.00064    0.05638
 25 Li   -0.00023   -0.00058    0.09923
 26 Li    0.00031   -0.00036    0.05290
 27 Li   -0.01403    0.00064    0.05690
 28 Li    0.14100    0.08033   -0.16225
 29 Li    0.00132   -0.19104   -0.18853
 30 Li   -0.00049   -0.01328    0.00861
 31 Li   -0.14437    0.08170   -0.17191
 32 Li    0.14468   -0.08082   -0.17075
 33 Li    0.00130    0.18558   -0.17157
 34 Li   -0.00033    0.01416    0.00957
 35 Li   -0.14794   -0.08216   -0.18083
 36 N    -0.00059    0.01926   -0.16607
 37 N     0.00011    0.01924   -0.15889
 38 N    -0.00011    0.01925   -0.16539
 39 N     0.00035    0.01924   -0.16608
 40 N    -0.00729    0.01895   -0.03293
 41 N     0.00017    0.01932    0.02128
 42 N    -0.00016    0.01916   -0.02922
 43 N     0.00703    0.01893   -0.03245
 44 N    -0.09574    0.02208    0.20108
 45 N    -0.00821    0.00780    1.60482
 46 N     0.00341    0.01967    0.20839
 47 N     0.09697    0.02221    0.20676
 48 Li    0.00836    0.01175   -1.24565

System changes: positions 

Initializing position-dependent things.

Density initialized from wave functions
     .----------------.  
    /|                |  
   / |                |  
  /  |                |  
 *   |                |  
 |   |                |  
 |   |                |  
 |   |                |  
 |   |                |  
 |   |                |  
 |   |                |  
 |   |                |  
 |   |                |  
 |   |                |  
 |   |                |  
 |   |                |  
 |   |                |  
 |   |                |  
 |   |                |  
 |   |                |  
 |   |                |  
 |   |                |  
 |   |                |  
 |   |                |  
 |   |             Li |  
 |   Li               |  
 |  Li   N  Li   N    |  
 |   | Li       Li    |  
 |   |Li LiN  Li LiN  |  
 |   |    Li          |  
 |   |   N Li    N Li |  
 |  Li      Li        |  
 |N  | Li  N    Li    |  
 |   |Li Li   Li Li   |  
 Li  |    Li          |  
 |Li |   N Li    N    |  
 |  Li      Li        |  
 |N  .-Li--N----Li----.  
 |  / Li Li   Li Li  /   
 Li/      Li        /    
 |/i       Li      /     
 *----------------*      

Positions:
   0 Li     1.753389    5.061850    0.000000    ( 0.0000,  0.0000,  0.0000)
   1 Li     0.000000    2.024928    0.000000    ( 0.0000,  0.0000,  0.0000)
   2 Li     3.506756    2.024928    0.000000    ( 0.0000,  0.0000,  0.0000)
   3 Li     5.260124    5.061850    0.000000    ( 0.0000,  0.0000,  0.0000)
   4 Li     1.753389    3.037256    1.946139    ( 0.0000,  0.0000,  0.0000)
   5 Li     0.000000    0.000334    1.946139    ( 0.0000,  0.0000,  0.0000)
   6 Li     3.506756    0.000334    1.946139    ( 0.0000,  0.0000,  0.0000)
   7 Li     5.260124    3.037256    1.946139    ( 0.0000,  0.0000,  0.0000)
   8 Li     1.753367    1.012631    1.946139    ( 0.0000,  0.0000,  0.0000)
   9 Li     0.000000    4.049553    1.946139    ( 0.0000,  0.0000,  0.0000)
  10 Li     3.506735    4.049553    1.946139    ( 0.0000,  0.0000,  0.0000)
  11 Li     5.260103    1.012631    1.946139    ( 0.0000,  0.0000,  0.0000)
  12 Li     1.753389    5.061850    3.920419    ( 0.0000,  0.0000,  0.0000)
  13 Li     0.000000    2.024928    3.920419    ( 0.0000,  0.0000,  0.0000)
  14 Li     3.506756    2.024928    3.920419    ( 0.0000,  0.0000,  0.0000)
  15 Li     5.260124    5.061850    3.920419    ( 0.0000,  0.0000,  0.0000)
  16 Li     1.753503    3.037339    5.887618    ( 0.0000,  0.0000,  0.0000)
  17 Li     0.000002    0.000165    5.887649    ( 0.0000,  0.0000,  0.0000)
  18 Li     3.506754    0.000310    5.887784    ( 0.0000,  0.0000,  0.0000)
  19 Li     5.260005    3.037338    5.887618    ( 0.0000,  0.0000,  0.0000)
  20 Li     1.753485    1.012554    5.887621    ( 0.0000,  0.0000,  0.0000)
  21 Li     0.000003    4.049729    5.887645    ( 0.0000,  0.0000,  0.0000)
  22 Li     3.506737    4.049583    5.887783    ( 0.0000,  0.0000,  0.0000)
  23 Li     5.259988    1.012556    5.887621    ( 0.0000,  0.0000,  0.0000)
  24 Li     1.753588    5.061859    7.860203    ( 0.0000,  0.0000,  0.0000)
  25 Li    -0.000003    2.024920    7.860815    ( 0.0000,  0.0000,  0.0000)
  26 Li     3.506761    2.024923    7.860153    ( 0.0000,  0.0000,  0.0000)
  27 Li     5.259923    5.061859    7.860211    ( 0.0000,  0.0000,  0.0000)
  28 Li     1.755417    3.038434    9.977447    ( 0.0000,  0.0000,  0.0000)
  29 Li     0.000019   -0.002365    9.977071    ( 0.0000,  0.0000,  0.0000)
  30 Li     3.506763    0.000175    9.979888    ( 0.0000,  0.0000,  0.0000)
  31 Li     5.258075    3.038453    9.977309    ( 0.0000,  0.0000,  0.0000)
  32 Li     1.755455    1.011507    9.977325    ( 0.0000,  0.0000,  0.0000)
  33 Li     0.000019    4.052234    9.977314    ( 0.0000,  0.0000,  0.0000)
  34 Li     3.506751    4.049785    9.979901    ( 0.0000,  0.0000,  0.0000)
  35 Li     5.258010    1.011488    9.977181    ( 0.0000,  0.0000,  0.0000)
  36 N      1.753389    5.061910    1.929076    ( 0.0000,  0.0000,  0.0000)
  37 N      0.000000    2.024989    1.929076    ( 0.0000,  0.0000,  0.0000)
  38 N      3.506756    2.024989    1.929076    ( 0.0000,  0.0000,  0.0000)
  39 N      5.260124    5.061910    1.929076    ( 0.0000,  0.0000,  0.0000)
  40 N      1.753284    5.062181    5.863693    ( 0.0000,  0.0000,  0.0000)
  41 N      0.000002    2.025265    5.864467    ( 0.0000,  0.0000,  0.0000)
  42 N      3.506754    2.025263    5.863746    ( 0.0000,  0.0000,  0.0000)
  43 N      5.260224    5.062181    5.863700    ( 0.0000,  0.0000,  0.0000)
  44 N      1.752021    5.062226    9.785658    ( 0.0000,  0.0000,  0.0000)
  45 N     -0.000117    2.025100    9.805712    ( 0.0000,  0.0000,  0.0000)
  46 N      3.506805    2.025270    9.785763    ( 0.0000,  0.0000,  0.0000)
  47 N      5.261509    5.062228    9.785740    ( 0.0000,  0.0000,  0.0000)
  48 Li     6.995958    1.999477   12.356820    ( 0.0000,  0.0000,  0.0000)

Unit cell:
           periodic     x           y           z      points  spacing
  1. axis:    yes    7.013470    0.000000    0.000000    40     0.1753
  2. axis:    yes    0.000000    6.073843    0.000000    32     0.1898
  3. axis:    yes    0.000000    0.000000   29.936001   160     0.1871

  Lengths:   7.013470   6.073843  29.936001
  Angles:   90.000000  90.000000  90.000000

Effective grid spacing dv^(1/3) = 0.1840

                     log10-error:    total        iterations:
           time      wfs    density  energy       fermi  poisson
iter:   1  08:39:39  -3.23         -153.941477    3             
iter:   2  08:39:50  -4.28  -2.33  -153.943560    4             
iter:   3  08:40:01  -5.21  -2.37  -153.937227    4             
iter:   4  08:40:12  -3.97  -2.56  -153.937011    4             
iter:   5  08:40:23  -4.48  -2.28  -153.932254    3             
iter:   6  08:40:34  -5.42  -3.00  -153.931447    3             
iter:   7  08:40:45  -5.04  -3.24  -153.930265    3             
iter:   8  08:40:57  -5.61  -3.23  -153.930816    3             
iter:   9  08:41:08  -6.23  -3.48  -153.931114    3             
iter:  10  08:41:19  -6.31  -3.51  -153.930914    3             
iter:  11  08:41:30  -6.77  -3.79  -153.930735    3             
iter:  12  08:41:41  -7.62  -4.19  -153.930740    2             
iter:  13  08:41:52  -7.94  -4.24  -153.930730    2             
iter:  14  08:42:04  -8.45  -4.31  -153.930739    2             

Converged after 14 iterations.

Dipole moment: (0.195672, -1.772966, 5.837165) |e|*Ang

Energy contributions relative to reference atoms: (reference = -25283.807400)

Kinetic:       +176.719871
Potential:     -128.421473
External:        +0.000000
XC:            -201.205422
Entropy (-ST):   -0.024379
Local:           -1.011526
--------------------------
Free energy:   -153.942929
Extrapolated:  -153.930739

Non-local vdW-DF-cx correlation energy: 15.288224
Semilocal GGA_X_LV_RPW86+LDA_C_PW energy: -1087.992713
(Not including atomic contributions)
Fermi level: -0.80982

Showing only first 2 kpts
 Kpt  Band  Eigenvalues  Occupancy
  0    46     -1.03802    0.13327
  0    47     -0.70177    0.00354
  0    48     -0.63876    0.00044
  0    49     -0.50647    0.00001

  1    46     -1.01208    0.13318
  1    47     -1.00380    0.13313
  1    48     -0.79928    0.05507
  1    49     -0.30334    0.00000


No gap

Forces in eV/Ang:
  0 Li   -0.00005    0.00003   -0.09625
  1 Li    0.00001    0.00002   -0.09663
  2 Li   -0.00001    0.00002   -0.09626
  3 Li    0.00002    0.00002   -0.09626
  4 Li    0.00054    0.00266    0.03399
  5 Li    0.00009    0.00119    0.03420
  6 Li   -0.00009    0.00206    0.03501
  7 Li   -0.00081    0.00269    0.03399
  8 Li    0.00076   -0.00222    0.03400
  9 Li    0.00018   -0.00071    0.03421
 10 Li    0.00018   -0.00158    0.03502
 11 Li   -0.00059   -0.00218    0.03399
 12 Li    0.00134    0.00009    0.08008
 13 Li    0.00003    0.00012    0.08151
 14 Li   -0.00003    0.00012    0.08009
 15 Li   -0.00138    0.00008    0.08011
 16 Li    0.00754    0.00659   -0.01287
 17 Li    0.00012   -0.00954   -0.01038
 18 Li   -0.00013   -0.00074   -0.00158
 19 Li   -0.00774    0.00655   -0.01283
 20 Li    0.00770   -0.00410   -0.01268
 21 Li    0.00019    0.01211   -0.01062
 22 Li    0.00009    0.00327   -0.00168
 23 Li   -0.00754   -0.00401   -0.01264
 24 Li    0.01624    0.00066    0.05723
 25 Li   -0.00019   -0.00049    0.17852
 26 Li    0.00024   -0.00024    0.05455
 27 Li   -0.01627    0.00066    0.05800
 28 Li    0.12056    0.07050   -0.13992
 29 Li    0.00103   -0.15530   -0.16576
 30 Li   -0.00049   -0.02063    0.01541
 31 Li   -0.12368    0.07195   -0.14936
 32 Li    0.12386   -0.06910   -0.14833
 33 Li    0.00101    0.15194   -0.14884
 34 Li   -0.00035    0.02346    0.01623
 35 Li   -0.12689   -0.07052   -0.15820
 36 N    -0.00070    0.01923   -0.16599
 37 N     0.00011    0.01923   -0.15405
 38 N    -0.00011    0.01923   -0.16536
 39 N     0.00047    0.01921   -0.16598
 40 N    -0.00576    0.01695   -0.03028
 41 N     0.00012    0.01721    0.01496
 42 N    -0.00012    0.01706   -0.02694
 43 N     0.00556    0.01694   -0.02974
 44 N    -0.07305    0.01950    0.16113
 45 N    -0.00735    0.00676    1.50952
 46 N     0.00257    0.01784    0.16520
 47 N     0.07407    0.01962    0.16589
 48 Li    0.00864    0.01220   -1.27270

System changes: positions 

Initializing position-dependent things.

Density initialized from wave functions
     .----------------.  
    /|                |  
   / |                |  
  /  |                |  
 *   |                |  
 |   |                |  
 |   |                |  
 |   |                |  
 |   |                |  
 |   |                |  
 |   |                |  
 |   |                |  
 |   |                |  
 |   |                |  
 |   |                |  
 |   |                |  
 |   |                |  
 |   |                |  
 |   |                |  
 |   |                |  
 |   |                |  
 |   |                |  
 |   |                |  
 |   |                |  
 |   |                |  
 |   Li      Li    Li |  
 |  Li   N  Li   N    |  
 |   | Li       Li N  |  
 |   |Li LiN  Li Li   |  
 |   |                |  
 |   Li  N Li    N Li |  
 |  Li      Li        |  
 |N  | Li  N    Li    |  
 |   |Li Li   Li Li   |  
 |   |    Li          |  
 |Li |   N Li    N    |  
 |  Li      Li        |  
 |N  .-Li--N----Li----.  
 |  / Li Li   Li Li  /   
 Li/      Li        /    
 |/i       Li      /     
 *----------------*      

Positions:
   0 Li     1.753389    5.061850    0.000000    ( 0.0000,  0.0000,  0.0000)
   1 Li     0.000000    2.024928    0.000000    ( 0.0000,  0.0000,  0.0000)
   2 Li     3.506756    2.024928    0.000000    ( 0.0000,  0.0000,  0.0000)
   3 Li     5.260124    5.061850    0.000000    ( 0.0000,  0.0000,  0.0000)
   4 Li     1.753389    3.037256    1.946139    ( 0.0000,  0.0000,  0.0000)
   5 Li     0.000000    0.000334    1.946139    ( 0.0000,  0.0000,  0.0000)
   6 Li     3.506756    0.000334    1.946139    ( 0.0000,  0.0000,  0.0000)
   7 Li     5.260124    3.037256    1.946139    ( 0.0000,  0.0000,  0.0000)
   8 Li     1.753367    1.012631    1.946139    ( 0.0000,  0.0000,  0.0000)
   9 Li     0.000000    4.049553    1.946139    ( 0.0000,  0.0000,  0.0000)
  10 Li     3.506735    4.049553    1.946139    ( 0.0000,  0.0000,  0.0000)
  11 Li     5.260103    1.012631    1.946139    ( 0.0000,  0.0000,  0.0000)
  12 Li     1.753389    5.061850    3.920419    ( 0.0000,  0.0000,  0.0000)
  13 Li     0.000000    2.024928    3.920419    ( 0.0000,  0.0000,  0.0000)
  14 Li     3.506756    2.024928    3.920419    ( 0.0000,  0.0000,  0.0000)
  15 Li     5.260124    5.061850    3.920419    ( 0.0000,  0.0000,  0.0000)
  16 Li     1.754501    3.038197    5.885913    ( 0.0000,  0.0000,  0.0000)
  17 Li     0.000018   -0.001122    5.886267    ( 0.0000,  0.0000,  0.0000)
  18 Li     3.506737    0.000200    5.887571    ( 0.0000,  0.0000,  0.0000)
  19 Li     5.258979    3.038190    5.885919    ( 0.0000,  0.0000,  0.0000)
  20 Li     1.754505    1.011996    5.885942    ( 0.0000,  0.0000,  0.0000)
  21 Li     0.000029    4.051326    5.886231    ( 0.0000,  0.0000,  0.0000)
  22 Li     3.506750    4.049998    5.887556    ( 0.0000,  0.0000,  0.0000)
  23 Li     5.258989    1.012011    5.885947    ( 0.0000,  0.0000,  0.0000)
  24 Li     1.755695    5.061946    7.867724    ( 0.0000,  0.0000,  0.0000)
  25 Li    -0.000029    2.024854    7.883239    ( 0.0000,  0.0000,  0.0000)
  26 Li     3.506794    2.024890    7.867312    ( 0.0000,  0.0000,  0.0000)
  27 Li     5.257812    5.061945    7.867830    ( 0.0000,  0.0000,  0.0000)
  28 Li     1.771564    3.047847    9.958726    ( 0.0000,  0.0000,  0.0000)
  29 Li     0.000158   -0.023292    9.954943    ( 0.0000,  0.0000,  0.0000)
  30 Li     3.506699   -0.002441    9.981824    ( 0.0000,  0.0000,  0.0000)
  31 Li     5.241514    3.048056    9.957342    ( 0.0000,  0.0000,  0.0000)
  32 Li     1.772041    1.002252    9.957496    ( 0.0000,  0.0000,  0.0000)
  33 Li     0.000156    4.072691    9.957413    ( 0.0000,  0.0000,  0.0000)
  34 Li     3.506705    4.052747    9.981947    ( 0.0000,  0.0000,  0.0000)
  35 Li     5.241022    1.002047    9.956050    ( 0.0000,  0.0000,  0.0000)
  36 N      1.753389    5.061910    1.929076    ( 0.0000,  0.0000,  0.0000)
  37 N      0.000000    2.024989    1.929076    ( 0.0000,  0.0000,  0.0000)
  38 N      3.506756    2.024989    1.929076    ( 0.0000,  0.0000,  0.0000)
  39 N      5.260124    5.061910    1.929076    ( 0.0000,  0.0000,  0.0000)
  40 N      1.752506    5.064439    5.859671    ( 0.0000,  0.0000,  0.0000)
  41 N      0.000018    2.027559    5.866522    ( 0.0000,  0.0000,  0.0000)
  42 N      3.506738    2.027536    5.860169    ( 0.0000,  0.0000,  0.0000)
  43 N      5.260976    5.064437    5.859748    ( 0.0000,  0.0000,  0.0000)
  44 N      1.742097    5.064828    9.807410    ( 0.0000,  0.0000,  0.0000)
  45 N     -0.001096    2.026004   10.005707    ( 0.0000,  0.0000,  0.0000)
  46 N      3.507154    2.027643    9.808095    ( 0.0000,  0.0000,  0.0000)
  47 N      5.271570    5.064846    9.808131    ( 0.0000,  0.0000,  0.0000)
  48 Li     6.997091    2.001077   12.189657    ( 0.0000,  0.0000,  0.0000)

Unit cell:
           periodic     x           y           z      points  spacing
  1. axis:    yes    7.013470    0.000000    0.000000    40     0.1753
  2. axis:    yes    0.000000    6.073843    0.000000    32     0.1898
  3. axis:    yes    0.000000    0.000000   29.936001   160     0.1871

  Lengths:   7.013470   6.073843  29.936001
  Angles:   90.000000  90.000000  90.000000

Effective grid spacing dv^(1/3) = 0.1840

                     log10-error:    total        iterations:
           time      wfs    density  energy       fermi  poisson
iter:   1  08:42:26  -1.42         -155.187382    4             
iter:   2  08:42:37  -2.50  -1.44  -155.332902    4             
iter:   3  08:42:48  -3.36  -1.47  -154.701149    5             
iter:   4  08:42:59  -2.84  -1.69  -154.645301    4             
iter:   5  08:43:10  -2.51  -1.62  -154.424796    2             
iter:   6  08:43:21  -3.60  -2.16  -154.414395    3             
iter:   7  08:43:32  -3.39  -2.21  -154.404914    3             
iter:   8  08:43:43  -3.54  -2.13  -154.407583    3             
iter:   9  08:43:54  -4.16  -2.39  -154.405848    4             
iter:  10  08:44:05  -3.99  -2.41  -154.397693    4             
iter:  11  08:44:16  -4.08  -2.58  -154.395362    3             
iter:  12  08:44:27  -4.99  -2.70  -154.395372    2             
iter:  13  08:44:38  -4.84  -2.70  -154.390646    3             
iter:  14  08:44:49  -5.91  -3.11  -154.391637    3             
iter:  15  08:45:00  -5.85  -3.14  -154.390627    3             
iter:  16  08:45:11  -5.78  -3.18  -154.392500    3             
iter:  17  08:45:22  -5.79  -3.04  -154.391161    3             
iter:  18  08:45:33  -6.16  -3.59  -154.390700    3             
iter:  19  08:45:44  -6.68  -3.43  -154.391172    3             
iter:  20  08:45:55  -6.34  -3.82  -154.390487    3             
iter:  21  08:46:06  -6.32  -3.24  -154.391120    3             
iter:  22  08:46:17  -7.89  -4.09  -154.390996    2             
iter:  23  08:46:28  -7.54  -4.13  -154.391000    2             
iter:  24  08:46:39  -8.45  -4.20  -154.391043    2             

Converged after 24 iterations.

Dipole moment: (0.252495, -1.531058, 5.769784) |e|*Ang

Energy contributions relative to reference atoms: (reference = -25283.807400)

Kinetic:       +176.918948
Potential:     -128.580998
External:        +0.000000
XC:            -201.706776
Entropy (-ST):   -0.026147
Local:           -1.009144
--------------------------
Free energy:   -154.404116
Extrapolated:  -154.391043

Non-local vdW-DF-cx correlation energy: 15.310082
Semilocal GGA_X_LV_RPW86+LDA_C_PW energy: -1088.474765
(Not including atomic contributions)
Fermi level: -0.85091

Showing only first 2 kpts
 Kpt  Band  Eigenvalues  Occupancy
  0    46     -1.08103    0.13327
  0    47     -0.74402    0.00368
  0    48     -0.69138    0.00065
  0    49     -0.28668    0.00000

  1    46     -1.05781    0.13320
  1    47     -1.04005    0.13309
  1    48     -0.85257    0.06851
  1    49     -0.20453    0.00000


No gap

Forces in eV/Ang:
  0 Li   -0.00004    0.00003   -0.09988
  1 Li    0.00001    0.00002   -0.10060
  2 Li   -0.00001    0.00002   -0.09981
  3 Li    0.00001    0.00002   -0.09990
  4 Li    0.00142    0.00314    0.03111
  5 Li    0.00010    0.00005    0.03131
  6 Li   -0.00010    0.00193    0.03309
  7 Li   -0.00168    0.00317    0.03110
  8 Li    0.00164   -0.00276    0.03113
  9 Li    0.00019    0.00037    0.03130
 10 Li    0.00017   -0.00151    0.03310
 11 Li   -0.00146   -0.00271    0.03111
 12 Li    0.00369    0.00061    0.05683
 13 Li    0.00005    0.00057    0.08140
 14 Li   -0.00005    0.00057    0.05867
 15 Li   -0.00373    0.00060    0.05714
 16 Li    0.00028    0.00979   -0.00507
 17 Li   -0.00004    0.01242    0.00064
 18 Li    0.00003    0.00685   -0.00163
 19 Li   -0.00009    0.00984   -0.00499
 20 Li    0.00019    0.00864   -0.00493
 21 Li   -0.00014    0.00596    0.00035
 22 Li   -0.00012    0.01145   -0.00154
 23 Li   -0.00021    0.00853   -0.00485
 24 Li    0.03203    0.00136    0.04142
 25 Li   -0.00001    0.00100    0.46324
 26 Li   -0.00051    0.00138    0.04373
 27 Li   -0.03199    0.00136    0.04340
 28 Li   -0.04890   -0.01199    0.05814
 29 Li   -0.00128    0.14104    0.03350
 30 Li   -0.00055   -0.06037    0.07639
 31 Li    0.04812   -0.01050    0.05052
 32 Li   -0.04801    0.02908    0.05059
 33 Li   -0.00132   -0.12781    0.05006
 34 Li   -0.00057    0.07780    0.07592
 35 Li    0.04717    0.02767    0.04257
 36 N    -0.00171    0.01904   -0.14679
 37 N     0.00011    0.01912   -0.13535
 38 N    -0.00010    0.01909   -0.14536
 39 N     0.00147    0.01903   -0.14621
 40 N     0.00615    0.00089    0.01048
 41 N    -0.00005    0.00114    0.15109
 42 N     0.00008    0.00082    0.00820
 43 N    -0.00597    0.00092    0.00954
 44 N     0.08923   -0.00174   -0.08651
 45 N    -0.00006    0.00017    0.63300
 46 N    -0.00407    0.00362   -0.10881
 47 N    -0.08960   -0.00176   -0.08294
 48 Li    0.01028    0.01543   -1.29352

System changes: positions 

Initializing position-dependent things.

Density initialized from wave functions
     .----------------.  
    /|                |  
   / |                |  
  /  |                |  
 *   |                |  
 |   |                |  
 |   |                |  
 |   |                |  
 |   |                |  
 |   |                |  
 |   |                |  
 |   |                |  
 |   |                |  
 |   |                |  
 |   |                |  
 |   |                |  
 |   |                |  
 |   |                |  
 |   |                |  
 |   |                |  
 |   |                |  
 |   |                |  
 |   |                |  
 |   |                |  
 |   |                |  
 |   Li      Li    Li |  
 |  Li   N  Li   N    |  
 |   | Li       Li N  |  
 |   |Li LiN  Li Li   |  
 |   |                |  
 |   Li  N Li    N Li |  
 |  Li      Li        |  
 |N  | Li  N    Li    |  
 |   |Li Li   Li Li   |  
 |   |    Li          |  
 |Li |   N Li    N    |  
 |  Li      Li        |  
 |N  .-Li--N----Li----.  
 |  / Li Li   Li Li  /   
 Li/      Li        /    
 |/i       Li      /     
 *----------------*      

Positions:
   0 Li     1.753389    5.061850    0.000000    ( 0.0000,  0.0000,  0.0000)
   1 Li     0.000000    2.024928    0.000000    ( 0.0000,  0.0000,  0.0000)
   2 Li     3.506756    2.024928    0.000000    ( 0.0000,  0.0000,  0.0000)
   3 Li     5.260124    5.061850    0.000000    ( 0.0000,  0.0000,  0.0000)
   4 Li     1.753389    3.037256    1.946139    ( 0.0000,  0.0000,  0.0000)
   5 Li     0.000000    0.000334    1.946139    ( 0.0000,  0.0000,  0.0000)
   6 Li     3.506756    0.000334    1.946139    ( 0.0000,  0.0000,  0.0000)
   7 Li     5.260124    3.037256    1.946139    ( 0.0000,  0.0000,  0.0000)
   8 Li     1.753367    1.012631    1.946139    ( 0.0000,  0.0000,  0.0000)
   9 Li     0.000000    4.049553    1.946139    ( 0.0000,  0.0000,  0.0000)
  10 Li     3.506735    4.049553    1.946139    ( 0.0000,  0.0000,  0.0000)
  11 Li     5.260103    1.012631    1.946139    ( 0.0000,  0.0000,  0.0000)
  12 Li     1.753389    5.061850    3.920419    ( 0.0000,  0.0000,  0.0000)
  13 Li     0.000000    2.024928    3.920419    ( 0.0000,  0.0000,  0.0000)
  14 Li     3.506756    2.024928    3.920419    ( 0.0000,  0.0000,  0.0000)
  15 Li     5.260124    5.061850    3.920419    ( 0.0000,  0.0000,  0.0000)
  16 Li     1.755433    3.039199    5.884217    ( 0.0000,  0.0000,  0.0000)
  17 Li     0.000033   -0.002056    5.884994    ( 0.0000,  0.0000,  0.0000)
  18 Li     3.506722    0.000241    5.887330    ( 0.0000,  0.0000,  0.0000)
  19 Li     5.258024    3.039188    5.884229    ( 0.0000,  0.0000,  0.0000)
  20 Li     1.755455    1.011661    5.884272    ( 0.0000,  0.0000,  0.0000)
  21 Li     0.000050    4.052936    5.884922    ( 0.0000,  0.0000,  0.0000)
  22 Li     3.506759    4.050626    5.887305    ( 0.0000,  0.0000,  0.0000)
  23 Li     5.258057    1.011686    5.884285    ( 0.0000,  0.0000,  0.0000)
  24 Li     1.758334    5.062057    7.875580    ( 0.0000,  0.0000,  0.0000)
  25 Li    -0.000054    2.024815    7.913247    ( 0.0000,  0.0000,  0.0000)
  26 Li     3.506813    2.024889    7.874874    ( 0.0000,  0.0000,  0.0000)
  27 Li     5.255169    5.062056    7.875817    ( 0.0000,  0.0000,  0.0000)
  28 Li     1.785613    3.056384    9.942495    ( 0.0000,  0.0000,  0.0000)
  29 Li     0.000261   -0.039858    9.935004    ( 0.0000,  0.0000,  0.0000)
  30 Li     3.506627   -0.006119    9.985255    ( 0.0000,  0.0000,  0.0000)
  31 Li     5.227063    3.056801    9.939786    ( 0.0000,  0.0000,  0.0000)
  32 Li     1.786519    0.994224    9.940069    ( 0.0000,  0.0000,  0.0000)
  33 Li     0.000256    4.089095    9.939904    ( 0.0000,  0.0000,  0.0000)
  34 Li     3.506650    4.057112    9.985470    ( 0.0000,  0.0000,  0.0000)
  35 Li     5.226151    0.993818    9.937239    ( 0.0000,  0.0000,  0.0000)
  36 N      1.753389    5.061910    1.929076    ( 0.0000,  0.0000,  0.0000)
  37 N      0.000000    2.024989    1.929076    ( 0.0000,  0.0000,  0.0000)
  38 N      3.506756    2.024989    1.929076    ( 0.0000,  0.0000,  0.0000)
  39 N      5.260124    5.061910    1.929076    ( 0.0000,  0.0000,  0.0000)
  40 N      1.751907    5.066568    5.856172    ( 0.0000,  0.0000,  0.0000)
  41 N      0.000033    2.029728    5.871997    ( 0.0000,  0.0000,  0.0000)
  42 N      3.506724    2.029679    5.857033    ( 0.0000,  0.0000,  0.0000)
  43 N      5.261553    5.066565    5.856292    ( 0.0000,  0.0000,  0.0000)
  44 N      1.734664    5.067221    9.826060    ( 0.0000,  0.0000,  0.0000)
  45 N     -0.002012    2.026856   10.205703    ( 0.0000,  0.0000,  0.0000)
  46 N      3.507395    2.029938    9.826817    ( 0.0000,  0.0000,  0.0000)
  47 N      5.279125    5.067254    9.827465    ( 0.0000,  0.0000,  0.0000)
  48 Li     6.998365    2.002896   12.006598    ( 0.0000,  0.0000,  0.0000)

Unit cell:
           periodic     x           y           z      points  spacing
  1. axis:    yes    7.013470    0.000000    0.000000    40     0.1753
  2. axis:    yes    0.000000    6.073843    0.000000    32     0.1898
  3. axis:    yes    0.000000    0.000000   29.936001   160     0.1871

  Lengths:   7.013470   6.073843  29.936001
  Angles:   90.000000  90.000000  90.000000

Effective grid spacing dv^(1/3) = 0.1840

                     log10-error:    total        iterations:
           time      wfs    density  energy       fermi  poisson
iter:   1  08:47:02  -1.46         -154.980537    32            
iter:   2  08:47:13  -2.77  -1.62  -154.843134    5             
iter:   3  08:47:24  -3.49  -1.64  -154.718506    4             
iter:   4  08:47:35  -2.42  -1.74  -154.517082    4             
iter:   5  08:47:46  -3.46  -2.14  -154.509580    3             
iter:   6  08:47:57  -3.08  -2.18  -154.488724    4             
iter:   7  08:48:08  -3.50  -2.37  -154.496075    4             
iter:   8  08:48:19  -4.70  -2.24  -154.492632    3             
iter:   9  08:48:30  -5.29  -2.36  -154.488404    3             
iter:  10  08:48:41  -3.13  -2.40  -154.524987    3             
iter:  11  08:48:52  -3.74  -1.96  -154.489474    4             
iter:  12  08:49:03  -3.82  -2.40  -154.483090    4             
iter:  13  08:49:14  -4.37  -2.54  -154.481259    3             
iter:  14  08:49:25  -5.01  -2.69  -154.479460    3             
iter:  15  08:49:36  -4.64  -2.84  -154.478027    3             
iter:  16  08:49:47  -5.07  -3.11  -154.477028    2             
iter:  17  08:49:58  -6.27  -3.33  -154.477129    2             
iter:  18  08:50:09  -5.42  -3.36  -154.476711    3             
iter:  19  08:50:20  -6.15  -3.26  -154.477254    2             
iter:  20  08:50:30  -5.63  -3.44  -154.477076    2             
iter:  21  08:50:42  -6.95  -3.58  -154.477102    2             
iter:  22  08:50:53  -5.72  -3.67  -154.477040    3             
iter:  23  08:51:04  -6.63  -3.81  -154.477007    2             
iter:  24  08:51:14  -7.38  -4.01  -154.477004    2             
iter:  25  08:51:25  -7.00  -4.12  -154.477063    2             
iter:  26  08:51:36  -7.86  -4.37  -154.477050    2             
iter:  27  08:51:47  -8.35  -4.58  -154.477056    2             

Converged after 27 iterations.

Dipole moment: (0.301664, -1.284446, 5.750410) |e|*Ang

Energy contributions relative to reference atoms: (reference = -25283.807400)

Kinetic:       +179.835859
Potential:     -130.718324
External:        +0.000000
XC:            -202.571739
Entropy (-ST):   -0.027448
Local:           -1.009128
--------------------------
Free energy:   -154.490780
Extrapolated:  -154.477056

Non-local vdW-DF-cx correlation energy: 15.343465
Semilocal GGA_X_LV_RPW86+LDA_C_PW energy: -1089.161172
(Not including atomic contributions)
Fermi level: -0.96118

Showing only first 2 kpts
 Kpt  Band  Eigenvalues  Occupancy
  0    46     -1.18927    0.13327
  0    47     -0.87772    0.00777
  0    48     -0.81093    0.00088
  0    49     -0.27544    0.00000

  1    46     -1.19288    0.13327
  1    47     -1.14494    0.13304
  1    48     -0.96652    0.07259
  1    49     -0.31561    0.00000


No gap

Forces in eV/Ang:
  0 Li   -0.00001    0.00003   -0.10151
  1 Li    0.00001    0.00002   -0.10236
  2 Li   -0.00001    0.00002   -0.10142
  3 Li   -0.00001    0.00002   -0.10153
  4 Li    0.00228    0.00365    0.03005
  5 Li    0.00010   -0.00096    0.03018
  6 Li   -0.00010    0.00198    0.03285
  7 Li   -0.00254    0.00366    0.03003
  8 Li    0.00250   -0.00331    0.03009
  9 Li    0.00020    0.00134    0.03013
 10 Li    0.00017   -0.00161    0.03286
 11 Li   -0.00232   -0.00326    0.03007
 12 Li    0.00600    0.00121    0.03949
 13 Li    0.00006    0.00113    0.09828
 14 Li   -0.00006    0.00108    0.04290
 15 Li   -0.00603    0.00121    0.03997
 16 Li   -0.01039    0.00884    0.01143
 17 Li   -0.00018    0.03633    0.02013
 18 Li    0.00018    0.01458   -0.00216
 19 Li    0.01089    0.00895    0.01150
 20 Li   -0.01067    0.02307    0.01152
 21 Li   -0.00041   -0.00464    0.01972
 22 Li   -0.00028    0.01690   -0.00189
 23 Li    0.01048    0.02278    0.01159
 24 Li    0.04097    0.00221    0.00449
 25 Li    0.00048    0.00300    0.38063
 26 Li   -0.00150    0.00343    0.00939
 27 Li   -0.04088    0.00221    0.00701
 28 Li   -0.21057   -0.09056    0.25128
 29 Li   -0.00320    0.41787    0.23030
 30 Li   -0.00065   -0.06793    0.14014
 31 Li    0.21291   -0.09007    0.24574
 32 Li   -0.20992    0.12249    0.24459
 33 Li   -0.00327   -0.39160    0.24713
 34 Li   -0.00085    0.09729    0.13816
 35 Li    0.21201    0.12219    0.23866
 36 N    -0.00227    0.01884   -0.13921
 37 N     0.00011    0.01901   -0.12689
 38 N    -0.00009    0.01890   -0.13846
 39 N     0.00206    0.01883   -0.13893
 40 N     0.01970   -0.01327    0.04582
 41 N    -0.00028   -0.01298    0.22140
 42 N     0.00025   -0.01348    0.03807
 43 N    -0.01927   -0.01320    0.04602
 44 N     0.21608   -0.02175   -0.32276
 45 N     0.01391    0.01343   -1.36150
 46 N    -0.00981   -0.00981   -0.36252
 47 N    -0.21760   -0.02193   -0.32803
 48 Li    0.00196    0.00143    0.18014

System changes: positions 

Initializing position-dependent things.

Density initialized from wave functions
     .----------------.  
    /|                |  
   / |                |  
  /  |                |  
 *   |                |  
 |   |                |  
 |   |                |  
 |   |                |  
 |   |                |  
 |   |                |  
 |   |                |  
 |   |                |  
 |   |                |  
 |   |                |  
 |   |                |  
 |   |                |  
 |   |                |  
 |   |                |  
 |   |                |  
 |   |                |  
 |   |                |  
 |   |                |  
 |   |                |  
 |   |                |  
 |   |                |  
 |   Li      Li    Li |  
 |  Li   N  Li   N    |  
 |   | Li       Li N  |  
 |   |Li LiN  Li Li   |  
 |   |                |  
 |   Li  N Li    N Li |  
 |  Li      Li        |  
 |N  | Li  N    Li    |  
 |   |Li Li   Li Li   |  
 |   |    Li          |  
 |Li |   N Li    N    |  
 |  Li      Li        |  
 |N  .-Li--N----Li----.  
 |  / Li Li   Li Li  /   
 Li/      Li        /    
 |/i       Li      /     
 *----------------*      

Positions:
   0 Li     1.753389    5.061850    0.000000    ( 0.0000,  0.0000,  0.0000)
   1 Li     0.000000    2.024928    0.000000    ( 0.0000,  0.0000,  0.0000)
   2 Li     3.506756    2.024928    0.000000    ( 0.0000,  0.0000,  0.0000)
   3 Li     5.260124    5.061850    0.000000    ( 0.0000,  0.0000,  0.0000)
   4 Li     1.753389    3.037256    1.946139    ( 0.0000,  0.0000,  0.0000)
   5 Li     0.000000    0.000334    1.946139    ( 0.0000,  0.0000,  0.0000)
   6 Li     3.506756    0.000334    1.946139    ( 0.0000,  0.0000,  0.0000)
   7 Li     5.260124    3.037256    1.946139    ( 0.0000,  0.0000,  0.0000)
   8 Li     1.753367    1.012631    1.946139    ( 0.0000,  0.0000,  0.0000)
   9 Li     0.000000    4.049553    1.946139    ( 0.0000,  0.0000,  0.0000)
  10 Li     3.506735    4.049553    1.946139    ( 0.0000,  0.0000,  0.0000)
  11 Li     5.260103    1.012631    1.946139    ( 0.0000,  0.0000,  0.0000)
  12 Li     1.753389    5.061850    3.920419    ( 0.0000,  0.0000,  0.0000)
  13 Li     0.000000    2.024928    3.920419    ( 0.0000,  0.0000,  0.0000)
  14 Li     3.506756    2.024928    3.920419    ( 0.0000,  0.0000,  0.0000)
  15 Li     5.260124    5.061850    3.920419    ( 0.0000,  0.0000,  0.0000)
  16 Li     1.754903    3.038821    5.885099    ( 0.0000,  0.0000,  0.0000)
  17 Li     0.000024   -0.001275    5.885762    ( 0.0000,  0.0000,  0.0000)
  18 Li     3.506731    0.000360    5.887420    ( 0.0000,  0.0000,  0.0000)
  19 Li     5.258570    3.038813    5.885109    ( 0.0000,  0.0000,  0.0000)
  20 Li     1.754913    1.012035    5.885143    ( 0.0000,  0.0000,  0.0000)
  21 Li     0.000036    4.052145    5.885703    ( 0.0000,  0.0000,  0.0000)
  22 Li     3.506752    4.050498    5.887402    ( 0.0000,  0.0000,  0.0000)
  23 Li     5.258588    1.012053    5.885153    ( 0.0000,  0.0000,  0.0000)
  24 Li     1.757503    5.062026    7.871973    ( 0.0000,  0.0000,  0.0000)
  25 Li    -0.000039    2.024862    7.903319    ( 0.0000,  0.0000,  0.0000)
  26 Li     3.506790    2.024922    7.871455    ( 0.0000,  0.0000,  0.0000)
  27 Li     5.256003    5.062026    7.872174    ( 0.0000,  0.0000,  0.0000)
  28 Li     1.777016    3.051516    9.952508    ( 0.0000,  0.0000,  0.0000)
  29 Li     0.000182   -0.028080    9.946544    ( 0.0000,  0.0000,  0.0000)
  30 Li     3.506655   -0.005100    9.984982    ( 0.0000,  0.0000,  0.0000)
  31 Li     5.235869    3.051843    9.950366    ( 0.0000,  0.0000,  0.0000)
  32 Li     1.777723    0.999159    9.950578    ( 0.0000,  0.0000,  0.0000)
  33 Li     0.000177    4.077651    9.950465    ( 0.0000,  0.0000,  0.0000)
  34 Li     3.506668    4.056056    9.985135    ( 0.0000,  0.0000,  0.0000)
  35 Li     5.235150    0.998843    9.948339    ( 0.0000,  0.0000,  0.0000)
  36 N      1.753389    5.061910    1.929076    ( 0.0000,  0.0000,  0.0000)
  37 N      0.000000    2.024989    1.929076    ( 0.0000,  0.0000,  0.0000)
  38 N      3.506756    2.024989    1.929076    ( 0.0000,  0.0000,  0.0000)
  39 N      5.260124    5.061910    1.929076    ( 0.0000,  0.0000,  0.0000)
  40 N      1.752370    5.065442    5.858280    ( 0.0000,  0.0000,  0.0000)
  41 N      0.000024    2.028586    5.871912    ( 0.0000,  0.0000,  0.0000)
  42 N      3.506733    2.028545    5.858893    ( 0.0000,  0.0000,  0.0000)
  43 N      5.261104    5.065440    5.858373    ( 0.0000,  0.0000,  0.0000)
  44 N      1.740257    5.065891    9.814325    ( 0.0000,  0.0000,  0.0000)
  45 N     -0.001467    2.026538   10.101809    ( 0.0000,  0.0000,  0.0000)
  46 N      3.507187    2.028770    9.814648    ( 0.0000,  0.0000,  0.0000)
  47 N      5.273460    5.065915    9.815386    ( 0.0000,  0.0000,  0.0000)
  48 Li     6.997811    2.002100   12.090526    ( 0.0000,  0.0000,  0.0000)

Unit cell:
           periodic     x           y           z      points  spacing
  1. axis:    yes    7.013470    0.000000    0.000000    40     0.1753
  2. axis:    yes    0.000000    6.073843    0.000000    32     0.1898
  3. axis:    yes    0.000000    0.000000   29.936001   160     0.1871

  Lengths:   7.013470   6.073843  29.936001
  Angles:   90.000000  90.000000  90.000000

Effective grid spacing dv^(1/3) = 0.1840

                     log10-error:    total        iterations:
           time      wfs    density  energy       fermi  poisson
iter:   1  08:52:10  -1.94         -154.703555    5             
iter:   2  08:52:21  -3.27  -1.89  -154.636322    3             
iter:   3  08:52:32  -3.86  -2.01  -154.600071    4             
iter:   4  08:52:43  -3.20  -2.15  -154.551473    2             
iter:   5  08:52:54  -3.29  -2.44  -154.550018    3             
iter:   6  08:53:05  -3.76  -2.46  -154.542340    3             
iter:   7  08:53:16  -4.77  -2.61  -154.544068    3             
iter:   8  08:53:27  -4.45  -2.66  -154.541204    3             
iter:   9  08:53:38  -4.94  -3.07  -154.540457    3             
iter:  10  08:53:49  -5.67  -3.33  -154.540371    2             
iter:  11  08:54:00  -6.09  -3.46  -154.540353    2             
iter:  12  08:54:11  -5.95  -3.52  -154.540442    2             
iter:  13  08:54:21  -6.82  -3.70  -154.540342    2             
iter:  14  08:54:32  -7.41  -3.76  -154.540397    2             
iter:  15  08:54:43  -6.47  -3.83  -154.540339    2             
iter:  16  08:54:54  -7.25  -4.04  -154.540345    2             
iter:  17  08:55:05  -7.78  -4.23  -154.540352    2             
iter:  18  08:55:16  -7.92  -4.21  -154.540349    2             
iter:  19  08:55:27  -7.72  -4.21  -154.540355    2             
iter:  20  08:55:38  -7.82  -4.38  -154.540338    2             
iter:  21  08:55:49  -8.47  -4.56  -154.540351    2             

Converged after 21 iterations.

Dipole moment: (0.270672, -1.435979, 5.761879) |e|*Ang

Energy contributions relative to reference atoms: (reference = -25283.807400)

Kinetic:       +177.893873
Potential:     -129.311520
External:        +0.000000
XC:            -202.095949
Entropy (-ST):   -0.026719
Local:           -1.013396
--------------------------
Free energy:   -154.553711
Extrapolated:  -154.540351

Non-local vdW-DF-cx correlation energy: 15.326195
Semilocal GGA_X_LV_RPW86+LDA_C_PW energy: -1088.803904
(Not including atomic contributions)
Fermi level: -0.90179

Showing only first 2 kpts
 Kpt  Band  Eigenvalues  Occupancy
  0    46     -1.12939    0.13327
  0    47     -0.80538    0.00515
  0    48     -0.74681    0.00076
  0    49     -0.21229    0.00000

  1    46     -1.11881    0.13324
  1    47     -1.08898    0.13307
  1    48     -0.90583    0.07115
  1    49     -0.25549    0.00000


No gap

Forces in eV/Ang:
  0 Li    0.00001    0.00002   -0.10082
  1 Li    0.00001    0.00002   -0.10144
  2 Li   -0.00001    0.00002   -0.10071
  3 Li   -0.00004    0.00002   -0.10083
  4 Li    0.00203    0.00348    0.03074
  5 Li    0.00010   -0.00071    0.03087
  6 Li   -0.00010    0.00196    0.03326
  7 Li   -0.00230    0.00350    0.03073
  8 Li    0.00225   -0.00312    0.03077
  9 Li    0.00019    0.00111    0.03084
 10 Li    0.00017   -0.00156    0.03326
 11 Li   -0.00207   -0.00307    0.03075
 12 Li    0.00521    0.00103    0.05010
 13 Li    0.00005    0.00097    0.10015
 14 Li   -0.00005    0.00093    0.05250
 15 Li   -0.00524    0.00103    0.05048
 16 Li   -0.00461    0.00840    0.00671
 17 Li   -0.00010    0.02197    0.01412
 18 Li    0.00010    0.01060   -0.00125
 19 Li    0.00490    0.00847    0.00679
 20 Li   -0.00479    0.01482    0.00681
 21 Li   -0.00024    0.00120    0.01381
 22 Li   -0.00016    0.01241   -0.00108
 23 Li    0.00469    0.01465    0.00689
 24 Li    0.03679    0.00174    0.01397
 25 Li    0.00035    0.00241    0.42610
 26 Li   -0.00106    0.00251    0.01614
 27 Li   -0.03677    0.00173    0.01599
 28 Li   -0.10025   -0.04109    0.14026
 29 Li   -0.00188    0.22176    0.11559
 30 Li   -0.00061   -0.04669    0.09856
 31 Li    0.10042   -0.04034    0.13368
 32 Li   -0.10034    0.06351    0.13321
 33 Li   -0.00192   -0.20294    0.13220
 34 Li   -0.00070    0.06825    0.09724
 35 Li    0.10039    0.06287    0.12623
 36 N    -0.00243    0.01894   -0.14292
 37 N     0.00011    0.01903   -0.13277
 38 N    -0.00010    0.01901   -0.14217
 39 N     0.00219    0.01892   -0.14258
 40 N     0.01153   -0.00454    0.02073
 41 N    -0.00015   -0.00449    0.18876
 42 N     0.00018   -0.00474    0.01584
 43 N    -0.01125   -0.00449    0.02070
 44 N     0.12095   -0.00877   -0.17161
 45 N     0.00372    0.00058   -0.02111
 46 N    -0.00572   -0.00198   -0.20302
 47 N    -0.12214   -0.00885   -0.17279
 48 Li    0.00872    0.01334   -0.88514

System changes: positions 

Initializing position-dependent things.

Density initialized from wave functions
     .----------------.  
    /|                |  
   / |                |  
  /  |                |  
 *   |                |  
 |   |                |  
 |   |                |  
 |   |                |  
 |   |                |  
 |   |                |  
 |   |                |  
 |   |                |  
 |   |                |  
 |   |                |  
 |   |                |  
 |   |                |  
 |   |                |  
 |   |                |  
 |   |                |  
 |   |                |  
 |   |                |  
 |   |                |  
 |   |                |  
 |   |                |  
 |   |                |  
 |   Li      Li    Li |  
 |  Li   N  Li   N    |  
 |   | Li       Li N  |  
 |   |Li LiN  Li Li   |  
 |   |                |  
 |   Li  N Li    N Li |  
 |  Li      Li        |  
 |N  | Li  N    Li    |  
 |   |Li Li   Li Li   |  
 |   |    Li          |  
 |Li |   N Li    N    |  
 |  Li      Li        |  
 |N  .-Li--N----Li----.  
 |  / Li Li   Li Li  /   
 Li/      Li        /    
 |/i       Li      /     
 *----------------*      

Positions:
   0 Li     1.753389    5.061850    0.000000    ( 0.0000,  0.0000,  0.0000)
   1 Li     0.000000    2.024928    0.000000    ( 0.0000,  0.0000,  0.0000)
   2 Li     3.506756    2.024928    0.000000    ( 0.0000,  0.0000,  0.0000)
   3 Li     5.260124    5.061850    0.000000    ( 0.0000,  0.0000,  0.0000)
   4 Li     1.753389    3.037256    1.946139    ( 0.0000,  0.0000,  0.0000)
   5 Li     0.000000    0.000334    1.946139    ( 0.0000,  0.0000,  0.0000)
   6 Li     3.506756    0.000334    1.946139    ( 0.0000,  0.0000,  0.0000)
   7 Li     5.260124    3.037256    1.946139    ( 0.0000,  0.0000,  0.0000)
   8 Li     1.753367    1.012631    1.946139    ( 0.0000,  0.0000,  0.0000)
   9 Li     0.000000    4.049553    1.946139    ( 0.0000,  0.0000,  0.0000)
  10 Li     3.506735    4.049553    1.946139    ( 0.0000,  0.0000,  0.0000)
  11 Li     5.260103    1.012631    1.946139    ( 0.0000,  0.0000,  0.0000)
  12 Li     1.753389    5.061850    3.920419    ( 0.0000,  0.0000,  0.0000)
  13 Li     0.000000    2.024928    3.920419    ( 0.0000,  0.0000,  0.0000)
  14 Li     3.506756    2.024928    3.920419    ( 0.0000,  0.0000,  0.0000)
  15 Li     5.260124    5.061850    3.920419    ( 0.0000,  0.0000,  0.0000)
  16 Li     1.754926    3.039022    5.885028    ( 0.0000,  0.0000,  0.0000)
  17 Li     0.000024   -0.001071    5.885830    ( 0.0000,  0.0000,  0.0000)
  18 Li     3.506731    0.000503    5.887373    ( 0.0000,  0.0000,  0.0000)
  19 Li     5.258548    3.039015    5.885039    ( 0.0000,  0.0000,  0.0000)
  20 Li     1.754936    1.012202    5.885076    ( 0.0000,  0.0000,  0.0000)
  21 Li     0.000035    4.052310    5.885763    ( 0.0000,  0.0000,  0.0000)
  22 Li     3.506751    4.050721    5.887357    ( 0.0000,  0.0000,  0.0000)
  23 Li     5.258566    1.012219    5.885087    ( 0.0000,  0.0000,  0.0000)
  24 Li     1.758234    5.062061    7.872900    ( 0.0000,  0.0000,  0.0000)
  25 Li    -0.000036    2.024890    7.910815    ( 0.0000,  0.0000,  0.0000)
  26 Li     3.506778    2.024956    7.872377    ( 0.0000,  0.0000,  0.0000)
  27 Li     5.255271    5.062060    7.873139    ( 0.0000,  0.0000,  0.0000)
  28 Li     1.777090    3.051831    9.952731    ( 0.0000,  0.0000,  0.0000)
  29 Li     0.000168   -0.026795    9.946074    ( 0.0000,  0.0000,  0.0000)
  30 Li     3.506639   -0.006028    9.986645    ( 0.0000,  0.0000,  0.0000)
  31 Li     5.235758    3.052186    9.950369    ( 0.0000,  0.0000,  0.0000)
  32 Li     1.777846    0.999191    9.950588    ( 0.0000,  0.0000,  0.0000)
  33 Li     0.000163    4.076589    9.950460    ( 0.0000,  0.0000,  0.0000)
  34 Li     3.506653    4.057332    9.986790    ( 0.0000,  0.0000,  0.0000)
  35 Li     5.234990    0.998848    9.948118    ( 0.0000,  0.0000,  0.0000)
  36 N      1.753389    5.061910    1.929076    ( 0.0000,  0.0000,  0.0000)
  37 N      0.000000    2.024989    1.929076    ( 0.0000,  0.0000,  0.0000)
  38 N      3.506756    2.024989    1.929076    ( 0.0000,  0.0000,  0.0000)
  39 N      5.260124    5.061910    1.929076    ( 0.0000,  0.0000,  0.0000)
  40 N      1.752465    5.065599    5.858220    ( 0.0000,  0.0000,  0.0000)
  41 N      0.000023    2.028750    5.875022    ( 0.0000,  0.0000,  0.0000)
  42 N      3.506734    2.028702    5.858804    ( 0.0000,  0.0000,  0.0000)
  43 N      5.261011    5.065597    5.858319    ( 0.0000,  0.0000,  0.0000)
  44 N      1.741045    5.066016    9.814027    ( 0.0000,  0.0000,  0.0000)
  45 N     -0.001493    2.026682   10.119004    ( 0.0000,  0.0000,  0.0000)
  46 N      3.507136    2.028977    9.813965    ( 0.0000,  0.0000,  0.0000)
  47 N      5.272670    5.066041    9.815135    ( 0.0000,  0.0000,  0.0000)
  48 Li     6.998031    2.002418   12.063999    ( 0.0000,  0.0000,  0.0000)

Unit cell:
           periodic     x           y           z      points  spacing
  1. axis:    yes    7.013470    0.000000    0.000000    40     0.1753
  2. axis:    yes    0.000000    6.073843    0.000000    32     0.1898
  3. axis:    yes    0.000000    0.000000   29.936001   160     0.1871

  Lengths:   7.013470   6.073843  29.936001
  Angles:   90.000000  90.000000  90.000000

Effective grid spacing dv^(1/3) = 0.1840

                     log10-error:    total        iterations:
           time      wfs    density  energy       fermi  poisson
iter:   1  08:56:12  -3.46         -154.569310    2             
iter:   2  08:56:23  -4.36  -2.42  -154.572383    4             
iter:   3  08:56:34  -5.38  -2.51  -154.567555    3             
iter:   4  08:56:45  -4.40  -2.74  -154.567970    3             
iter:   5  08:56:56  -4.81  -2.37  -154.566170    4             
iter:   6  08:57:08  -5.88  -2.96  -154.564722    3             
iter:   7  08:57:19  -5.16  -3.25  -154.563778    3             
iter:   8  08:57:30  -5.47  -3.18  -154.565872    3             
iter:   9  08:57:41  -5.84  -3.06  -154.564476    3             
iter:  10  08:57:52  -6.49  -3.60  -154.564309    2             
iter:  11  08:58:03  -7.04  -3.86  -154.564164    2             
iter:  12  08:58:15  -7.39  -4.05  -154.564191    2             
iter:  13  08:58:26  -8.02  -4.21  -154.564179    2             

Converged after 13 iterations.

Dipole moment: (0.270252, -1.432873, 5.763468) |e|*Ang

Energy contributions relative to reference atoms: (reference = -25283.807400)

Kinetic:       +178.245786
Potential:     -129.579565
External:        +0.000000
XC:            -202.208353
Entropy (-ST):   -0.026874
Local:           -1.008611
--------------------------
Free energy:   -154.577616
Extrapolated:  -154.564179

Non-local vdW-DF-cx correlation energy: 15.330284
Semilocal GGA_X_LV_RPW86+LDA_C_PW energy: -1088.897312
(Not including atomic contributions)
Fermi level: -0.91605

Showing only first 2 kpts
 Kpt  Band  Eigenvalues  Occupancy
  0    46     -1.14171    0.13326
  0    47     -0.82260    0.00567
  0    48     -0.76184    0.00078
  0    49     -0.22584    0.00000

  1    46     -1.13506    0.13324
  1    47     -1.10299    0.13307
  1    48     -0.92014    0.07120
  1    49     -0.26946    0.00000


No gap

Forces in eV/Ang:
  0 Li    0.00003    0.00003   -0.10076
  1 Li    0.00001    0.00002   -0.10143
  2 Li   -0.00001    0.00002   -0.10065
  3 Li   -0.00005    0.00002   -0.10078
  4 Li    0.00229    0.00362    0.03126
  5 Li    0.00010   -0.00099    0.03133
  6 Li   -0.00010    0.00199    0.03401
  7 Li   -0.00255    0.00364    0.03124
  8 Li    0.00250   -0.00327    0.03129
  9 Li    0.00019    0.00139    0.03130
 10 Li    0.00017   -0.00160    0.03401
 11 Li   -0.00232   -0.00321    0.03127
 12 Li    0.00569    0.00116    0.05015
 13 Li    0.00005    0.00110    0.11171
 14 Li   -0.00004    0.00105    0.05244
 15 Li   -0.00572    0.00116    0.05056
 16 Li   -0.00553    0.00742    0.01195
 17 Li   -0.00010    0.02224    0.01978
 18 Li    0.00011    0.01137   -0.00138
 19 Li    0.00579    0.00748    0.01203
 20 Li   -0.00572    0.01541    0.01203
 21 Li   -0.00023    0.00057    0.01949
 22 Li   -0.00014    0.01124   -0.00119
 23 Li    0.00561    0.01525    0.01211
 24 Li    0.03614    0.00171    0.00300
 25 Li    0.00054    0.00293    0.39513
 26 Li   -0.00122    0.00279    0.00384
 27 Li   -0.03615    0.00170    0.00475
 28 Li   -0.09537   -0.04114    0.14761
 29 Li   -0.00180    0.20629    0.12235
 30 Li   -0.00060   -0.03290    0.09742
 31 Li    0.09548   -0.04071    0.14128
 32 Li   -0.09586    0.06331    0.14069
 33 Li   -0.00183   -0.18734    0.13902
 34 Li   -0.00071    0.05404    0.09580
 35 Li    0.09586    0.06299    0.13396
 36 N    -0.00265    0.01891   -0.14731
 37 N     0.00011    0.01903   -0.13496
 38 N    -0.00010    0.01898   -0.14676
 39 N     0.00241    0.01888   -0.14692
 40 N     0.01236   -0.00410    0.01807
 41 N    -0.00018   -0.00424    0.17449
 42 N     0.00020   -0.00434    0.01333
 43 N    -0.01209   -0.00406    0.01805
 44 N     0.10588   -0.00796   -0.16860
 45 N     0.00452    0.00195   -0.27075
 46 N    -0.00530   -0.00195   -0.19750
 47 N    -0.10736   -0.00803   -0.17060
 48 Li    0.00781    0.01182   -0.69809

System changes: positions 

Initializing position-dependent things.

Density initialized from wave functions
     .----------------.  
    /|                |  
   / |                |  
  /  |                |  
 *   |                |  
 |   |                |  
 |   |                |  
 |   |                |  
 |   |                |  
 |   |                |  
 |   |                |  
 |   |                |  
 |   |                |  
 |   |                |  
 |   |                |  
 |   |                |  
 |   |                |  
 |   |                |  
 |   |                |  
 |   |                |  
 |   |                |  
 |   |                |  
 |   |                |  
 |   |                |  
 |   |                |  
 |   Li      Li    Li |  
 |  Li   N  Li   N    |  
 |   | Li       Li N  |  
 |   |Li LiN  Li Li   |  
 |   |                |  
 |   |   N Li    N Li |  
 |  Li      Li        |  
 |N  | Li  N    Li    |  
 |   |Li Li   Li Li   |  
 Li  |    Li          |  
 |Li |   N Li    N    |  
 |  Li      Li        |  
 |N  .-Li--N----Li----.  
 |  / Li Li   Li Li  /   
 Li/      Li        /    
 |/i       Li      /     
 *----------------*      

Positions:
   0 Li     1.753389    5.061850    0.000000    ( 0.0000,  0.0000,  0.0000)
   1 Li     0.000000    2.024928    0.000000    ( 0.0000,  0.0000,  0.0000)
   2 Li     3.506756    2.024928    0.000000    ( 0.0000,  0.0000,  0.0000)
   3 Li     5.260124    5.061850    0.000000    ( 0.0000,  0.0000,  0.0000)
   4 Li     1.753389    3.037256    1.946139    ( 0.0000,  0.0000,  0.0000)
   5 Li     0.000000    0.000334    1.946139    ( 0.0000,  0.0000,  0.0000)
   6 Li     3.506756    0.000334    1.946139    ( 0.0000,  0.0000,  0.0000)
   7 Li     5.260124    3.037256    1.946139    ( 0.0000,  0.0000,  0.0000)
   8 Li     1.753367    1.012631    1.946139    ( 0.0000,  0.0000,  0.0000)
   9 Li     0.000000    4.049553    1.946139    ( 0.0000,  0.0000,  0.0000)
  10 Li     3.506735    4.049553    1.946139    ( 0.0000,  0.0000,  0.0000)
  11 Li     5.260103    1.012631    1.946139    ( 0.0000,  0.0000,  0.0000)
  12 Li     1.753389    5.061850    3.920419    ( 0.0000,  0.0000,  0.0000)
  13 Li     0.000000    2.024928    3.920419    ( 0.0000,  0.0000,  0.0000)
  14 Li     3.506756    2.024928    3.920419    ( 0.0000,  0.0000,  0.0000)
  15 Li     5.260124    5.061850    3.920419    ( 0.0000,  0.0000,  0.0000)
  16 Li     1.754765    3.039616    5.885350    ( 0.0000,  0.0000,  0.0000)
  17 Li     0.000021    0.000049    5.886672    ( 0.0000,  0.0000,  0.0000)
  18 Li     3.506734    0.001148    5.887230    ( 0.0000,  0.0000,  0.0000)
  19 Li     5.258720    3.039612    5.885367    ( 0.0000,  0.0000,  0.0000)
  20 Li     1.754769    1.013031    5.885408    ( 0.0000,  0.0000,  0.0000)
  21 Li     0.000026    4.052611    5.886580    ( 0.0000,  0.0000,  0.0000)
  22 Li     3.506745    4.051486    5.887222    ( 0.0000,  0.0000,  0.0000)
  23 Li     5.258731    1.013040    5.885425    ( 0.0000,  0.0000,  0.0000)
  24 Li     1.760753    5.062184    7.874536    ( 0.0000,  0.0000,  0.0000)
  25 Li    -0.000012    2.025047    7.935688    ( 0.0000,  0.0000,  0.0000)
  26 Li     3.506712    2.025115    7.874009    ( 0.0000,  0.0000,  0.0000)
  27 Li     5.252751    5.062182    7.874896    ( 0.0000,  0.0000,  0.0000)
  28 Li     1.774180    3.051087    9.958043    ( 0.0000,  0.0000,  0.0000)
  29 Li     0.000085   -0.017839    9.949260    ( 0.0000,  0.0000,  0.0000)
  30 Li     3.506591   -0.008596    9.992942    ( 0.0000,  0.0000,  0.0000)
  31 Li     5.238607    3.051503    9.955067    ( 0.0000,  0.0000,  0.0000)
  32 Li     1.775015    1.001303    9.955277    ( 0.0000,  0.0000,  0.0000)
  33 Li     0.000077    4.068661    9.955060    ( 0.0000,  0.0000,  0.0000)
  34 Li     3.506601    4.061227    9.993015    ( 0.0000,  0.0000,  0.0000)
  35 Li     5.237755    1.000907    9.952159    ( 0.0000,  0.0000,  0.0000)
  36 N      1.753389    5.061910    1.929076    ( 0.0000,  0.0000,  0.0000)
  37 N      0.000000    2.024989    1.929076    ( 0.0000,  0.0000,  0.0000)
  38 N      3.506756    2.024989    1.929076    ( 0.0000,  0.0000,  0.0000)
  39 N      5.260124    5.061910    1.929076    ( 0.0000,  0.0000,  0.0000)
  40 N      1.753054    5.065770    5.858715    ( 0.0000,  0.0000,  0.0000)
  41 N      0.000017    2.028928    5.886774    ( 0.0000,  0.0000,  0.0000)
  42 N      3.506741    2.028866    5.859083    ( 0.0000,  0.0000,  0.0000)
  43 N      5.260432    5.065770    5.858825    ( 0.0000,  0.0000,  0.0000)
  44 N      1.745697    5.066001    9.808255    ( 0.0000,  0.0000,  0.0000)
  45 N     -0.001372    2.027074   10.137566    ( 0.0000,  0.0000,  0.0000)
  46 N      3.506875    2.029306    9.806572    ( 0.0000,  0.0000,  0.0000)
  47 N      5.267965    5.066023    9.809382    ( 0.0000,  0.0000,  0.0000)
  48 Li     6.998665    2.003346   11.996927    ( 0.0000,  0.0000,  0.0000)

Unit cell:
           periodic     x           y           z      points  spacing
  1. axis:    yes    7.013470    0.000000    0.000000    40     0.1753
  2. axis:    yes    0.000000    6.073843    0.000000    32     0.1898
  3. axis:    yes    0.000000    0.000000   29.936001   160     0.1871

  Lengths:   7.013470   6.073843  29.936001
  Angles:   90.000000  90.000000  90.000000

Effective grid spacing dv^(1/3) = 0.1840

                     log10-error:    total        iterations:
           time      wfs    density  energy       fermi  poisson
iter:   1  08:58:49  -2.83         -154.632094    3             
iter:   2  08:59:00  -3.63  -2.08  -154.657776    29            
iter:   3  08:59:11  -4.49  -2.00  -154.614796    4             
iter:   4  08:59:22  -4.48  -2.53  -154.609967    3             
iter:   5  08:59:33  -4.31  -2.78  -154.608402    3             
iter:   6  08:59:45  -4.71  -2.80  -154.613070    4             
iter:   7  08:59:56  -4.94  -2.66  -154.609701    3             
iter:   8  09:00:07  -5.21  -3.01  -154.607560    3             
iter:   9  09:00:18  -5.86  -3.12  -154.608925    3             
iter:  10  09:00:29  -6.00  -3.18  -154.607548    3             
iter:  11  09:00:40  -6.15  -3.20  -154.607990    2             
iter:  12  09:00:52  -6.91  -3.73  -154.607992    1             
iter:  13  09:01:03  -7.37  -3.85  -154.608038    2             
iter:  14  09:01:14  -7.45  -3.98  -154.608017    2             
iter:  15  09:01:25  -8.22  -4.07  -154.608032    2             

Converged after 15 iterations.

Dipole moment: (0.255636, -1.480808, 5.787097) |e|*Ang

Energy contributions relative to reference atoms: (reference = -25283.807400)

Kinetic:       +179.235397
Potential:     -130.316565
External:        +0.000000
XC:            -202.507452
Entropy (-ST):   -0.027068
Local:           -1.005879
--------------------------
Free energy:   -154.621567
Extrapolated:  -154.608032

Non-local vdW-DF-cx correlation energy: 15.339771
Semilocal GGA_X_LV_RPW86+LDA_C_PW energy: -1089.130882
(Not including atomic contributions)
Fermi level: -0.94779

Showing only first 2 kpts
 Kpt  Band  Eigenvalues  Occupancy
  0    46     -1.16627    0.13324
  0    47     -0.86080    0.00696
  0    48     -0.79512    0.00082
  0    49     -0.25249    0.00000

  1    46     -1.16882    0.13325
  1    47     -1.13522    0.13308
  1    48     -0.95155    0.07084
  1    49     -0.29824    0.00000


No gap

Forces in eV/Ang:
  0 Li    0.00005    0.00003   -0.09928
  1 Li    0.00001    0.00002   -0.10014
  2 Li   -0.00001    0.00002   -0.09910
  3 Li   -0.00008    0.00002   -0.09930
  4 Li    0.00307    0.00407    0.03190
  5 Li    0.00010   -0.00185    0.03181
  6 Li   -0.00010    0.00208    0.03528
  7 Li   -0.00333    0.00409    0.03188
  8 Li    0.00329   -0.00372    0.03194
  9 Li    0.00019    0.00224    0.03176
 10 Li    0.00017   -0.00169    0.03528
 11 Li   -0.00311   -0.00367    0.03192
 12 Li    0.00695    0.00170    0.05617
 13 Li    0.00003    0.00162    0.15684
 14 Li   -0.00003    0.00152    0.05757
 15 Li   -0.00699    0.00170    0.05664
 16 Li   -0.00666    0.00372    0.02706
 17 Li   -0.00008    0.01784    0.03589
 18 Li    0.00013    0.01192   -0.00257
 19 Li    0.00675    0.00375    0.02717
 20 Li   -0.00683    0.01410    0.02712
 21 Li   -0.00014    0.00017    0.03565
 22 Li   -0.00001    0.00584   -0.00240
 23 Li    0.00673    0.01403    0.02723
 24 Li    0.03376    0.00167   -0.02885
 25 Li    0.00120    0.00481    0.28979
 26 Li   -0.00163    0.00356   -0.03377
 27 Li   -0.03393    0.00164   -0.02835
 28 Li   -0.03221   -0.01887    0.12486
 29 Li   -0.00107    0.07517    0.09738
 30 Li   -0.00058    0.01994    0.07307
 31 Li    0.03141   -0.01942    0.11917
 32 Li   -0.03395    0.03641    0.11833
 33 Li   -0.00107   -0.05901    0.11398
 34 Li   -0.00068   -0.00330    0.07063
 35 Li    0.03311    0.03700    0.11226
 36 N    -0.00334    0.01883   -0.15693
 37 N     0.00012    0.01905   -0.13615
 38 N    -0.00010    0.01893   -0.15764
 39 N     0.00309    0.01882   -0.15624
 40 N     0.00726    0.00102    0.01259
 41 N    -0.00013    0.00046    0.12667
 42 N     0.00011    0.00083    0.01196
 43 N    -0.00712    0.00100    0.01212
 44 N     0.01397   -0.00010   -0.10533
 45 N     0.00493    0.00644   -0.70352
 46 N    -0.00228    0.00151   -0.12777
 47 N    -0.01610   -0.00013   -0.10664
 48 Li    0.00512    0.00725   -0.16852

System changes: positions 

Initializing position-dependent things.

Density initialized from wave functions
     .----------------.  
    /|                |  
   / |                |  
  /  |                |  
 *   |                |  
 |   |                |  
 |   |                |  
 |   |                |  
 |   |                |  
 |   |                |  
 |   |                |  
 |   |                |  
 |   |                |  
 |   |                |  
 |   |                |  
 |   |                |  
 |   |                |  
 |   |                |  
 |   |                |  
 |   |                |  
 |   |                |  
 |   |                |  
 |   |                |  
 |   |                |  
 |   |                |  
 |   Li      Li    Li |  
 |  Li   N  Li   N    |  
 |   | Li       Li N  |  
 |   |Li LiN  Li Li   |  
 |   |                |  
 |Li |   N Li    N    |  
 |  Li      Li        |  
 |N  | Li  N    Li    |  
 |   |Li Li   Li Li   |  
 Li  |    Li          |  
 |Li |   N Li    N    |  
 |  Li      Li        |  
 |N  .-Li--N----Li----.  
 |  / Li Li   Li Li  /   
 Li/      Li        /    
 |/i       Li      /     
 *----------------*      

Positions:
   0 Li     1.753389    5.061850    0.000000    ( 0.0000,  0.0000,  0.0000)
   1 Li     0.000000    2.024928    0.000000    ( 0.0000,  0.0000,  0.0000)
   2 Li     3.506756    2.024928    0.000000    ( 0.0000,  0.0000,  0.0000)
   3 Li     5.260124    5.061850    0.000000    ( 0.0000,  0.0000,  0.0000)
   4 Li     1.753389    3.037256    1.946139    ( 0.0000,  0.0000,  0.0000)
   5 Li     0.000000    0.000334    1.946139    ( 0.0000,  0.0000,  0.0000)
   6 Li     3.506756    0.000334    1.946139    ( 0.0000,  0.0000,  0.0000)
   7 Li     5.260124    3.037256    1.946139    ( 0.0000,  0.0000,  0.0000)
   8 Li     1.753367    1.012631    1.946139    ( 0.0000,  0.0000,  0.0000)
   9 Li     0.000000    4.049553    1.946139    ( 0.0000,  0.0000,  0.0000)
  10 Li     3.506735    4.049553    1.946139    ( 0.0000,  0.0000,  0.0000)
  11 Li     5.260103    1.012631    1.946139    ( 0.0000,  0.0000,  0.0000)
  12 Li     1.753389    5.061850    3.920419    ( 0.0000,  0.0000,  0.0000)
  13 Li     0.000000    2.024928    3.920419    ( 0.0000,  0.0000,  0.0000)
  14 Li     3.506756    2.024928    3.920419    ( 0.0000,  0.0000,  0.0000)
  15 Li     5.260124    5.061850    3.920419    ( 0.0000,  0.0000,  0.0000)
  16 Li     1.754480    3.039930    5.886106    ( 0.0000,  0.0000,  0.0000)
  17 Li     0.000017    0.001076    5.887831    ( 0.0000,  0.0000,  0.0000)
  18 Li     3.506740    0.001706    5.887125    ( 0.0000,  0.0000,  0.0000)
  19 Li     5.259015    3.039928    5.886127    ( 0.0000,  0.0000,  0.0000)
  20 Li     1.754475    1.013768    5.886168    ( 0.0000,  0.0000,  0.0000)
  21 Li     0.000017    4.052638    5.887725    ( 0.0000,  0.0000,  0.0000)
  22 Li     3.506741    4.051971    5.887125    ( 0.0000,  0.0000,  0.0000)
  23 Li     5.259020    1.013771    5.886190    ( 0.0000,  0.0000,  0.0000)
  24 Li     1.762523    5.062272    7.874313    ( 0.0000,  0.0000,  0.0000)
  25 Li     0.000022    2.025218    7.952052    ( 0.0000,  0.0000,  0.0000)
  26 Li     3.506647    2.025265    7.873738    ( 0.0000,  0.0000,  0.0000)
  27 Li     5.250978    5.062270    7.874740    ( 0.0000,  0.0000,  0.0000)
  28 Li     1.770646    3.049551    9.964649    ( 0.0000,  0.0000,  0.0000)
  29 Li     0.000009   -0.009826    9.954538    ( 0.0000,  0.0000,  0.0000)
  30 Li     3.506560   -0.009473    9.997441    ( 0.0000,  0.0000,  0.0000)
  31 Li     5.242130    3.049975    9.961350    ( 0.0000,  0.0000,  0.0000)
  32 Li     1.771457    1.003868    9.961530    ( 0.0000,  0.0000,  0.0000)
  33 Li     0.000000    4.061522    9.961196    ( 0.0000,  0.0000,  0.0000)
  34 Li     3.506565    4.063080    9.997426    ( 0.0000,  0.0000,  0.0000)
  35 Li     5.241298    1.003469    9.958067    ( 0.0000,  0.0000,  0.0000)
  36 N      1.753389    5.061910    1.929076    ( 0.0000,  0.0000,  0.0000)
  37 N      0.000000    2.024989    1.929076    ( 0.0000,  0.0000,  0.0000)
  38 N      3.506756    2.024989    1.929076    ( 0.0000,  0.0000,  0.0000)
  39 N      5.260124    5.061910    1.929076    ( 0.0000,  0.0000,  0.0000)
  40 N      1.753551    5.065681    5.859595    ( 0.0000,  0.0000,  0.0000)
  41 N      0.000011    2.028833    5.895492    ( 0.0000,  0.0000,  0.0000)
  42 N      3.506748    2.028769    5.859794    ( 0.0000,  0.0000,  0.0000)
  43 N      5.259945    5.065683    5.859695    ( 0.0000,  0.0000,  0.0000)
  44 N      1.749371    5.065761    9.801499    ( 0.0000,  0.0000,  0.0000)
  45 N     -0.001147    2.027300   10.120619    ( 0.0000,  0.0000,  0.0000)
  46 N      3.506663    2.029303    9.798466    ( 0.0000,  0.0000,  0.0000)
  47 N      5.264216    5.065780    9.802569    ( 0.0000,  0.0000,  0.0000)
  48 Li     6.999008    2.003853   11.970615    ( 0.0000,  0.0000,  0.0000)

Unit cell:
           periodic     x           y           z      points  spacing
  1. axis:    yes    7.013470    0.000000    0.000000    40     0.1753
  2. axis:    yes    0.000000    6.073843    0.000000    32     0.1898
  3. axis:    yes    0.000000    0.000000   29.936001   160     0.1871

  Lengths:   7.013470   6.073843  29.936001
  Angles:   90.000000  90.000000  90.000000

Effective grid spacing dv^(1/3) = 0.1840

                     log10-error:    total        iterations:
           time      wfs    density  energy       fermi  poisson
iter:   1  09:01:48  -3.04         -154.639495    3             
iter:   2  09:01:59  -4.30  -2.46  -154.640794    4             
iter:   3  09:02:10  -5.30  -2.55  -154.638064    3             
iter:   4  09:02:21  -3.74  -2.65  -154.639329    3             
[...]
  2. axis:    yes    0.000000    6.073843    0.000000    32     0.1898
  3. axis:    yes    0.000000    0.000000   29.936001   160     0.1871

  Lengths:   7.013470   6.073843  29.936001
  Angles:   90.000000  90.000000  90.000000

Effective grid spacing dv^(1/3) = 0.1840

                     log10-error:    total        iterations:
           time      wfs    density  energy       fermi  poisson
iter:   1  10:00:15  -2.78         -154.812137    4             
iter:   2  10:00:26  -3.37  -1.89  -154.858457    4             
iter:   3  10:00:38  -3.99  -1.75  -154.741231    4             
iter:   4  10:00:49  -4.91  -2.47  -154.736008    3             
iter:   5  10:01:00  -4.23  -2.59  -154.732768    3             
iter:   6  10:01:11  -4.44  -2.47  -154.737532    4             
iter:   7  10:01:22  -5.39  -2.61  -154.737705    3             
iter:   8  10:01:33  -5.03  -2.61  -154.732854    4             
iter:   9  10:01:44  -5.30  -3.01  -154.731291    3             
iter:  10  10:01:56  -6.14  -3.34  -154.732227    3             
iter:  11  10:02:07  -6.35  -3.22  -154.731404    3             
iter:  12  10:02:18  -6.35  -3.59  -154.730972    3             
iter:  13  10:02:29  -6.26  -3.33  -154.731583    3             
iter:  14  10:02:40  -7.70  -3.71  -154.731339    3             
iter:  15  10:02:51  -7.29  -3.92  -154.731350    2             
iter:  16  10:03:02  -7.40  -4.13  -154.731398    2             
iter:  17  10:03:14  -8.42  -4.24  -154.731380    2             

Converged after 17 iterations.

Dipole moment: (0.076787, -2.242331, 5.728130) |e|*Ang

Energy contributions relative to reference atoms: (reference = -25283.807400)

Kinetic:       +179.672154
Potential:     -130.703492
External:        +0.000000
XC:            -202.655226
Entropy (-ST):   -0.023098
Local:           -1.033267
--------------------------
Free energy:   -154.742929
Extrapolated:  -154.731380

Non-local vdW-DF-cx correlation energy: 15.310500
Semilocal GGA_X_LV_RPW86+LDA_C_PW energy: -1089.207393
(Not including atomic contributions)
Fermi level: -0.95714

Showing only first 2 kpts
 Kpt  Band  Eigenvalues  Occupancy
  0    46     -1.21851    0.13331
  0    47     -0.85945    0.00495
  0    48     -0.77042    0.00026
  0    49     -0.27129    0.00000

  1    46     -1.30634    0.13333
  1    47     -1.16512    0.13320
  1    48     -0.91148    0.02389
  1    49     -0.31354    0.00000


No gap

Forces in eV/Ang:
  0 Li    0.00017    0.00003   -0.10330
  1 Li    0.00003    0.00004   -0.10264
  2 Li   -0.00003   -0.00001   -0.10287
  3 Li   -0.00020    0.00002   -0.10312
  4 Li    0.00152    0.00301    0.02787
  5 Li   -0.00011    0.00074    0.02615
  6 Li    0.00011   -0.00062    0.02755
  7 Li   -0.00178    0.00339    0.02799
  8 Li    0.00182   -0.00323    0.02831
  9 Li   -0.00001   -0.00131    0.02552
 10 Li    0.00038    0.00008    0.02727
 11 Li   -0.00165   -0.00354    0.02847
 12 Li   -0.08412    0.02992    0.10585
 13 Li   -0.00271    0.01701    0.31028
 14 Li    0.00270    0.02524    0.15087
 15 Li    0.08415    0.02964    0.09717
 16 Li   -0.02433   -0.00303   -0.09803
 17 Li    0.00030   -0.03558   -0.04335
 18 Li   -0.00011    0.04284   -0.03135
 19 Li    0.02464   -0.00324   -0.10166
 20 Li   -0.02483    0.00850   -0.09614
 21 Li    0.00006    0.04303   -0.05095
 22 Li   -0.00038   -0.03641   -0.02425
 23 Li    0.02463    0.00872   -0.09958
 24 Li   -0.05008    0.00619    0.12026
 25 Li   -0.00415    0.01338    0.01762
 26 Li    0.00301    0.00904    0.11530
 27 Li    0.05395    0.00606    0.13606
 28 Li    0.07740   -0.03333   -0.07883
 29 Li    0.00214    0.11464    0.04802
 30 Li    0.00179    0.03870    0.03179
 31 Li   -0.07807   -0.03243   -0.07947
 32 Li    0.09807    0.04194   -0.08351
 33 Li    0.00186   -0.10787    0.11979
 34 Li    0.00159    0.00465   -0.00309
 35 Li   -0.09879    0.04078   -0.08304
 36 N    -0.00210    0.01549   -0.13765
 37 N     0.00029    0.01686   -0.12754
 38 N    -0.00031    0.01672   -0.14230
 39 N     0.00187    0.01547   -0.14405
 40 N    -0.06190   -0.00872   -0.02316
 41 N    -0.00067   -0.00975    0.16188
 42 N     0.00066   -0.01180   -0.07685
 43 N     0.06211   -0.00861   -0.01649
 44 N    -0.04096   -0.00939    0.09494
 45 N     0.00202   -0.00180   -0.09596
 46 N    -0.00125    0.00716    0.01186
 47 N     0.03974   -0.00978    0.08567
 48 Li   -0.00840   -0.03652   -0.01140

System changes: positions 

Initializing position-dependent things.

Density initialized from wave functions
     .----------------.  
    /|                |  
   / |                |  
  /  |                |  
 *   |                |  
 |   |                |  
 |   |                |  
 |   |                |  
 |   |                |  
 |   |                |  
 |   |                |  
 |   |                |  
 |   |                |  
 |   |                |  
 |   |                |  
 |   |                |  
 |   |                |  
 |   |                |  
 |   |                |  
 |   |                |  
 |   |                |  
 |   |                |  
 |   |                |  
 |   |                |  
 |   |                |  
 |   |             Li |  
 |   |   N  Li   N   Li  
 |   | Li       Li N  |  
 |   |Li LLi  Li Li   |  
 |   |            Li  |  
 |Li |   N Li    N    |  
 |   |      Li       Li  
 |N  | Li  N    Li    |  
 |   |Li Li   Li Li   |  
 |   |    Li      Li  |  
 |Li |   N Li    N    |  
 |  Li      Li        |  
 |N  .-Li--N----Li----.  
 |  / Li Li   Li Li  /   
 Li/      Li        /    
 |/i       Li      /     
 *----------------*      

Positions:
   0 Li     1.753389    5.061850    0.000000    ( 0.0000,  0.0000,  0.0000)
   1 Li     0.000000    2.024928    0.000000    ( 0.0000,  0.0000,  0.0000)
   2 Li     3.506756    2.024928    0.000000    ( 0.0000,  0.0000,  0.0000)
   3 Li     5.260124    5.061850    0.000000    ( 0.0000,  0.0000,  0.0000)
   4 Li     1.753389    3.037256    1.946139    ( 0.0000,  0.0000,  0.0000)
   5 Li     0.000000    0.000334    1.946139    ( 0.0000,  0.0000,  0.0000)
   6 Li     3.506756    0.000334    1.946139    ( 0.0000,  0.0000,  0.0000)
   7 Li     5.260124    3.037256    1.946139    ( 0.0000,  0.0000,  0.0000)
   8 Li     1.753367    1.012631    1.946139    ( 0.0000,  0.0000,  0.0000)
   9 Li     0.000000    4.049553    1.946139    ( 0.0000,  0.0000,  0.0000)
  10 Li     3.506735    4.049553    1.946139    ( 0.0000,  0.0000,  0.0000)
  11 Li     5.260103    1.012631    1.946139    ( 0.0000,  0.0000,  0.0000)
  12 Li     1.753389    5.061850    3.920419    ( 0.0000,  0.0000,  0.0000)
  13 Li     0.000000    2.024928    3.920419    ( 0.0000,  0.0000,  0.0000)
  14 Li     3.506756    2.024928    3.920419    ( 0.0000,  0.0000,  0.0000)
  15 Li     5.260124    5.061850    3.920419    ( 0.0000,  0.0000,  0.0000)
  16 Li     1.756645    3.072249    5.956847    ( 0.0000,  0.0000,  0.0000)
  17 Li    -0.000087    0.032989    5.937173    ( 0.0000,  0.0000,  0.0000)
  18 Li     3.506720    0.037027    5.802390    ( 0.0000,  0.0000,  0.0000)
  19 Li     5.256765    3.071606    5.961137    ( 0.0000,  0.0000,  0.0000)
  20 Li     1.756090    1.043788    5.966092    ( 0.0000,  0.0000,  0.0000)
  21 Li    -0.000072    4.086475    5.922318    ( 0.0000,  0.0000,  0.0000)
  22 Li     3.506718    4.077917    5.800655    ( 0.0000,  0.0000,  0.0000)
  23 Li     5.257318    1.044371    5.970621    ( 0.0000,  0.0000,  0.0000)
  24 Li     1.933261    5.087260    7.871540    ( 0.0000,  0.0000,  0.0000)
  25 Li     0.007567    2.093058    7.909969    ( 0.0000,  0.0000,  0.0000)
  26 Li     3.500033    2.057201    7.848932    ( 0.0000,  0.0000,  0.0000)
  27 Li     5.079319    5.086865    7.859649    ( 0.0000,  0.0000,  0.0000)
  28 Li     1.769819    3.098901    9.832550    ( 0.0000,  0.0000,  0.0000)
  29 Li    -0.001642    0.027094    9.802698    ( 0.0000,  0.0000,  0.0000)
  30 Li     3.508236    0.062602   10.315307    ( 0.0000,  0.0000,  0.0000)
  31 Li     5.241739    3.098622    9.815571    ( 0.0000,  0.0000,  0.0000)
  32 Li     1.776695    1.036765    9.801709    ( 0.0000,  0.0000,  0.0000)
  33 Li    -0.002014    4.118300    9.916536    ( 0.0000,  0.0000,  0.0000)
  34 Li     3.507793    4.082454   10.245676    ( 0.0000,  0.0000,  0.0000)
  35 Li     5.234638    1.036967    9.783549    ( 0.0000,  0.0000,  0.0000)
  36 N      1.753389    5.061910    1.929076    ( 0.0000,  0.0000,  0.0000)
  37 N      0.000000    2.024989    1.929076    ( 0.0000,  0.0000,  0.0000)
  38 N      3.506756    2.024989    1.929076    ( 0.0000,  0.0000,  0.0000)
  39 N      5.260124    5.061910    1.929076    ( 0.0000,  0.0000,  0.0000)
  40 N      1.769883    5.097398    5.866423    ( 0.0000,  0.0000,  0.0000)
  41 N      0.000528    2.063101    5.904032    ( 0.0000,  0.0000,  0.0000)
  42 N      3.506277    2.060744    5.876599    ( 0.0000,  0.0000,  0.0000)
  43 N      5.243616    5.097399    5.863736    ( 0.0000,  0.0000,  0.0000)
  44 N      1.775180    5.110904    9.817276    ( 0.0000,  0.0000,  0.0000)
  45 N     -0.001133    2.071675    9.885302    ( 0.0000,  0.0000,  0.0000)
  46 N      3.505445    2.072118    9.768711    ( 0.0000,  0.0000,  0.0000)
  47 N      5.236124    5.110866    9.797749    ( 0.0000,  0.0000,  0.0000)
  48 Li     7.007670    1.997810   11.759479    ( 0.0000,  0.0000,  0.0000)

Unit cell:
           periodic     x           y           z      points  spacing
  1. axis:    yes    7.013470    0.000000    0.000000    40     0.1753
  2. axis:    yes    0.000000    6.073843    0.000000    32     0.1898
  3. axis:    yes    0.000000    0.000000   29.936001   160     0.1871

  Lengths:   7.013470   6.073843  29.936001
  Angles:   90.000000  90.000000  90.000000

Effective grid spacing dv^(1/3) = 0.1840

                     log10-error:    total        iterations:
           time      wfs    density  energy       fermi  poisson
iter:   1  10:03:36  -2.96         -154.746643    3             
iter:   2  10:03:47  -4.04  -2.53  -154.740413    3             
iter:   3  10:03:59  -4.81  -2.71  -154.739877    3             
iter:   4  10:04:10  -4.61  -2.83  -154.737817    2             
iter:   5  10:04:21  -5.22  -2.99  -154.739899    3             
iter:   6  10:04:32  -5.15  -2.93  -154.737703    3             
iter:   7  10:04:43  -6.02  -3.25  -154.737949    2             
iter:   8  10:04:54  -6.06  -3.43  -154.737969    2             
iter:   9  10:05:05  -6.19  -3.62  -154.738316    2             
iter:  10  10:05:16  -6.88  -3.61  -154.738108    2             
iter:  11  10:05:27  -7.47  -3.82  -154.738087    2             
iter:  12  10:05:39  -7.14  -3.89  -154.738088    2             
iter:  13  10:05:50  -7.82  -4.05  -154.738090    2             
iter:  14  10:06:01  -7.35  -4.09  -154.738104    2             
iter:  15  10:06:12  -8.21  -4.34  -154.738092    2             

Converged after 15 iterations.

Dipole moment: (0.071679, -2.341185, 5.724049) |e|*Ang

Energy contributions relative to reference atoms: (reference = -25283.807400)

Kinetic:       +179.398554
Potential:     -130.520647
External:        +0.000000
XC:            -202.572281
Entropy (-ST):   -0.022641
Local:           -1.032397
--------------------------
Free energy:   -154.749412
Extrapolated:  -154.738092

Non-local vdW-DF-cx correlation energy: 15.305795
Semilocal GGA_X_LV_RPW86+LDA_C_PW energy: -1089.143282
(Not including atomic contributions)
Fermi level: -0.94994

Showing only first 2 kpts
 Kpt  Band  Eigenvalues  Occupancy
  0    46     -1.21887    0.13332
  0    47     -0.85327    0.00511
  0    48     -0.75988    0.00024
  0    49     -0.26574    0.00000

  1    46     -1.31242    0.13333
  1    47     -1.15879    0.13321
  1    48     -0.89950    0.02092
  1    49     -0.30722    0.00000


No gap

Forces in eV/Ang:
  0 Li    0.00026    0.00003   -0.10346
  1 Li    0.00004    0.00004   -0.10282
  2 Li   -0.00003   -0.00001   -0.10301
  3 Li   -0.00028    0.00002   -0.10327
  4 Li    0.00162    0.00304    0.02851
  5 Li   -0.00012    0.00065    0.02690
  6 Li    0.00012   -0.00072    0.02801
  7 Li   -0.00188    0.00344    0.02865
  8 Li    0.00193   -0.00329    0.02901
  9 Li   -0.00002   -0.00130    0.02618
 10 Li    0.00039    0.00010    0.02770
 11 Li   -0.00175   -0.00362    0.02919
 12 Li   -0.08503    0.03200    0.09369
 13 Li   -0.00287    0.01778    0.30728
 14 Li    0.00286    0.02690    0.13929
 15 Li    0.08507    0.03168    0.08467
 16 Li   -0.02244   -0.00195   -0.09603
 17 Li    0.00013   -0.03234   -0.03475
 18 Li    0.00012    0.02982   -0.03409
 19 Li    0.02262   -0.00159   -0.09991
 20 Li   -0.02272    0.00416   -0.09450
 21 Li   -0.00005    0.03604   -0.04226
 22 Li   -0.00005   -0.02661   -0.02620
 23 Li    0.02255    0.00390   -0.09819
 24 Li   -0.06111    0.00479    0.11049
 25 Li   -0.00411    0.01459   -0.02275
 26 Li    0.00302    0.01025    0.08303
 27 Li    0.06522    0.00463    0.12205
 28 Li    0.10995   -0.02818   -0.08135
 29 Li    0.00213    0.03811    0.05113
 30 Li    0.00154    0.08505    0.01691
 31 Li   -0.11110   -0.02852   -0.08236
 32 Li    0.12938    0.03277   -0.08309
 33 Li    0.00188   -0.03446    0.12536
 34 Li    0.00136   -0.04503   -0.01636
 35 Li   -0.13056    0.03283   -0.08280
 36 N    -0.00050    0.01518   -0.13396
 37 N     0.00033    0.01681   -0.12755
 38 N    -0.00034    0.01656   -0.13923
 39 N     0.00024    0.01518   -0.14109
 40 N    -0.05040   -0.00596   -0.00352
 41 N    -0.00067   -0.00726    0.15107
 42 N     0.00063   -0.00882   -0.05670
 43 N     0.05047   -0.00597    0.00455
 44 N    -0.09588   -0.00143    0.10929
 45 N     0.00090   -0.00719    0.01704
 46 N     0.00062    0.00808    0.03835
 47 N     0.09520   -0.00172    0.10394
 48 Li   -0.00824   -0.03817   -0.06767

System changes: positions 

Initializing position-dependent things.

Density initialized from wave functions
     .----------------.  
    /|                |  
   / |                |  
  /  |                |  
 *   |                |  
 |   |                |  
 |   |                |  
 |   |                |  
 |   |                |  
 |   |                |  
 |   |                |  
 |   |                |  
 |   |                |  
 |   |                |  
 |   |                |  
 |   |                |  
 |   |                |  
 |   |                |  
 |   |                |  
 |   |                |  
 |   |                |  
 |   |                |  
 |   |                |  
 |   |                |  
 |   |                |  
 |   |   N         Li |  
 |   |      Li   N   Li  
 |   | Li       Li N  |  
 |   |Li LLi  Li Li   |  
 |   |            Li  |  
 |Li |   N Li    N    |  
 |   |      Li       Li  
 |N  | Li  N    Li    |  
 |   |Li Li   Li Li   |  
 |   |    Li      Li  |  
 |Li |   N Li    N    |  
 |  Li      Li        |  
 |N  .-Li--N----Li----.  
 |  / Li Li   Li Li  /   
 Li/      Li        /    
 |/i       Li      /     
 *----------------*      

Positions:
   0 Li     1.753389    5.061850    0.000000    ( 0.0000,  0.0000,  0.0000)
   1 Li     0.000000    2.024928    0.000000    ( 0.0000,  0.0000,  0.0000)
   2 Li     3.506756    2.024928    0.000000    ( 0.0000,  0.0000,  0.0000)
   3 Li     5.260124    5.061850    0.000000    ( 0.0000,  0.0000,  0.0000)
   4 Li     1.753389    3.037256    1.946139    ( 0.0000,  0.0000,  0.0000)
   5 Li     0.000000    0.000334    1.946139    ( 0.0000,  0.0000,  0.0000)
   6 Li     3.506756    0.000334    1.946139    ( 0.0000,  0.0000,  0.0000)
   7 Li     5.260124    3.037256    1.946139    ( 0.0000,  0.0000,  0.0000)
   8 Li     1.753367    1.012631    1.946139    ( 0.0000,  0.0000,  0.0000)
   9 Li     0.000000    4.049553    1.946139    ( 0.0000,  0.0000,  0.0000)
  10 Li     3.506735    4.049553    1.946139    ( 0.0000,  0.0000,  0.0000)
  11 Li     5.260103    1.012631    1.946139    ( 0.0000,  0.0000,  0.0000)
  12 Li     1.753389    5.061850    3.920419    ( 0.0000,  0.0000,  0.0000)
  13 Li     0.000000    2.024928    3.920419    ( 0.0000,  0.0000,  0.0000)
  14 Li     3.506756    2.024928    3.920419    ( 0.0000,  0.0000,  0.0000)
  15 Li     5.260124    5.061850    3.920419    ( 0.0000,  0.0000,  0.0000)
  16 Li     1.754840    3.072966    5.947548    ( 0.0000,  0.0000,  0.0000)
  17 Li    -0.000077    0.032469    5.929067    ( 0.0000,  0.0000,  0.0000)
  18 Li     3.506719    0.040917    5.800576    ( 0.0000,  0.0000,  0.0000)
  19 Li     5.258589    3.072286    5.951732    ( 0.0000,  0.0000,  0.0000)
  20 Li     1.754245    1.045448    5.957459    ( 0.0000,  0.0000,  0.0000)
  21 Li    -0.000076    4.089726    5.912759    ( 0.0000,  0.0000,  0.0000)
  22 Li     3.506700    4.076281    5.799345    ( 0.0000,  0.0000,  0.0000)
  23 Li     5.259148    1.046067    5.961915    ( 0.0000,  0.0000,  0.0000)
  24 Li     1.937313    5.089033    7.875714    ( 0.0000,  0.0000,  0.0000)
  25 Li     0.007345    2.097274    7.910537    ( 0.0000,  0.0000,  0.0000)
  26 Li     3.500127    2.059245    7.851185    ( 0.0000,  0.0000,  0.0000)
  27 Li     5.075561    5.088608    7.864437    ( 0.0000,  0.0000,  0.0000)
  28 Li     1.772657    3.100265    9.820617    ( 0.0000,  0.0000,  0.0000)
  29 Li    -0.001512    0.039599    9.804445    ( 0.0000,  0.0000,  0.0000)
  30 Li     3.508580    0.065195   10.337585    ( 0.0000,  0.0000,  0.0000)
  31 Li     5.238933    3.100188    9.803515    ( 0.0000,  0.0000,  0.0000)
  32 Li     1.781947    1.039096    9.788567    ( 0.0000,  0.0000,  0.0000)
  33 Li    -0.001947    4.110088    9.928076    ( 0.0000,  0.0000,  0.0000)
  34 Li     3.508087    4.087404   10.261408    ( 0.0000,  0.0000,  0.0000)
  35 Li     5.229374    1.039058    9.770371    ( 0.0000,  0.0000,  0.0000)
  36 N      1.753389    5.061910    1.929076    ( 0.0000,  0.0000,  0.0000)
  37 N      0.000000    2.024989    1.929076    ( 0.0000,  0.0000,  0.0000)
  38 N      3.506756    2.024989    1.929076    ( 0.0000,  0.0000,  0.0000)
  39 N      5.260124    5.061910    1.929076    ( 0.0000,  0.0000,  0.0000)
  40 N      1.767484    5.097932    5.861552    ( 0.0000,  0.0000,  0.0000)
  41 N      0.000489    2.063687    5.907300    ( 0.0000,  0.0000,  0.0000)
  42 N      3.506306    2.061075    5.869828    ( 0.0000,  0.0000,  0.0000)
  43 N      5.246058    5.097944    5.859156    ( 0.0000,  0.0000,  0.0000)
  44 N      1.780991    5.112327    9.822393    ( 0.0000,  0.0000,  0.0000)
  45 N     -0.001029    2.073625    9.874250    ( 0.0000,  0.0000,  0.0000)
  46 N      3.505387    2.074388    9.765174    ( 0.0000,  0.0000,  0.0000)
  47 N      5.230287    5.112254    9.801780    ( 0.0000,  0.0000,  0.0000)
  48 Li     7.006704    1.993216   11.760076    ( 0.0000,  0.0000,  0.0000)

Unit cell:
           periodic     x           y           z      points  spacing
  1. axis:    yes    7.013470    0.000000    0.000000    40     0.1753
  2. axis:    yes    0.000000    6.073843    0.000000    32     0.1898
  3. axis:    yes    0.000000    0.000000   29.936001   160     0.1871

  Lengths:   7.013470   6.073843  29.936001
  Angles:   90.000000  90.000000  90.000000

Effective grid spacing dv^(1/3) = 0.1840

                     log10-error:    total        iterations:
           time      wfs    density  energy       fermi  poisson
iter:   1  10:06:35  -2.99         -154.782481    4             
iter:   2  10:06:46  -3.71  -2.10  -154.772414    4             
iter:   3  10:06:57  -4.55  -2.07  -154.754816    4             
iter:   4  10:07:08  -5.01  -2.60  -154.750261    3             
iter:   5  10:07:19  -4.78  -2.70  -154.748989    2             
iter:   6  10:07:30  -4.48  -2.74  -154.754627    4             
iter:   7  10:07:42  -5.46  -2.68  -154.750635    4             
iter:   8  10:07:53  -5.04  -3.00  -154.748695    3             
iter:   9  10:08:04  -5.52  -2.86  -154.750193    3             
iter:  10  10:08:15  -6.39  -3.23  -154.749238    3             
iter:  11  10:08:26  -5.81  -3.51  -154.748723    3             
