
  ___ ___ ___ _ _ _  
 |   |   |_  | | | | 
 | | | | | . | | | | 
 |__ |  _|___|_____|  20.1.0
 |___|_|             

User:   jngwng01@n716006
Date:   Mon Sep  6 11:33:39 2021
Arch:   x86_64
Pid:    31310
Python: 3.8.5
gpaw:   /uls/7/gpaw-20.1.0/lib/python3.8/site-packages/gpaw-20.1.0-py3.8-linux-x86_64.egg/gpaw
_gpaw:  /uls/7/gpaw-20.1.0/lib/python3.8/site-packages/gpaw-20.1.0-py3.8-linux-x86_64.egg/
        _gpaw.cpython-38-x86_64-linux-gnu.so
ase:    /uls/7/gpaw-20.1.0/lib/python3.8/site-packages/ase-3.20.1-py3.8.egg/ase (version 3.20.1)
numpy:  /uls/7/gpaw-20.1.0/lib/python3.8/site-packages/numpy (version 1.19.2)
scipy:  /uls/7/gpaw-20.1.0/lib/python3.8/site-packages/scipy-1.5.2-py3.8-linux-x86_64.egg/scipy (version 1.5.2)
libxc:  4.3.4
units:  Angstrom and eV
cores: 32
OMP_NUM_THREADS: 1

Input parameters:
  convergence: {eigenstates: 1e-07}
  kpts: [5 6 1]
  mode: {ecut: 500.0,
         gammacentered: False,
         name: pw}
  occupations: {name: fermi-dirac,
                width: 0.03}
  random: True
  xc: {backend: libvdwxc,
       libvdwxc_name: vdW-DF-cx,
       name: vdW-DF-cx,
       semilocal_xc: GGA_X_LV_RPW86+LDA_C_PW,
       setup_name: PBE,
       vdwcoef: 1.0}

System changes: positions, numbers, cell, pbc, initial_charges, initial_magmoms 

Initialize ...

Li-setup:
  name: Lithium
  id: 830b4218f175192f93f959cfc0aad614
  Z: 3
  valence: 1
  core: 2
  charge: 0.0
  file: /uls/7/gpaw-20.1.0/setups/gpaw-setups-0.9.20000/Li.PBE.gz
  compensation charges: gauss, rc=0.33, lmax=2
  cutoffs: 1.91(filt), 2.55(core),
  valence states:
                energy  radius
    2s(1.00)    -2.874   1.058
    2p(0.00)    -1.090   1.058
    *s          24.337   1.058

  Using partial waves for Li as LCAO basis

N-setup:
  name: Nitrogen
  id: f7500608b86eaa90eef8b1d9a670dc53
  Z: 7
  valence: 5
  core: 2
  charge: 0.0
  file: /uls/7/gpaw-20.1.0/setups/gpaw-setups-0.9.20000/N.PBE.gz
  compensation charges: gauss, rc=0.18, lmax=2
  cutoffs: 1.11(filt), 0.96(core),
  valence states:
                energy  radius
    2s(2.00)   -18.583   0.603
    2p(3.00)    -7.089   0.529
    *s           8.629   0.603
    *p          20.123   0.529
    *d           0.000   0.577

  Using partial waves for N as LCAO basis

Reference energy: -25283.807400

Spin-paired calculation

Occupation numbers:
  Fermi-Dirac: width=0.0300 eV

Convergence criteria:
  Maximum total energy change: 0.0005 eV / electron
  Maximum integral of absolute density change: 0.0001 electrons
  Maximum integral of absolute eigenstate change: 1e-07 eV^2
  Maximum number of iterations: 333

Symmetries present (total): 1

  ( 1  0  0)
  ( 0  1  0)
  ( 0  0  1)

30 k-points: 5 x 6 x 1 Monkhorst-Pack grid
15 k-points in the irreducible part of the Brillouin zone
       k-points in crystal coordinates                weights
   0:     0.00000000    0.08333333    0.00000000          2/30
   1:     0.00000000    0.25000000    0.00000000          2/30
   2:     0.00000000    0.41666667    0.00000000          2/30
   3:     0.20000000   -0.41666667    0.00000000          2/30
   4:     0.20000000   -0.25000000    0.00000000          2/30
   5:     0.20000000   -0.08333333    0.00000000          2/30
   6:     0.20000000    0.08333333    0.00000000          2/30
   7:     0.20000000    0.25000000    0.00000000          2/30
   8:     0.20000000    0.41666667    0.00000000          2/30
   9:     0.40000000   -0.41666667    0.00000000          2/30
          ...
  14:     0.40000000    0.41666667    0.00000000          2/30

Wave functions: Plane wave expansion
  Cutoff energy: 500.000 eV
  Number of coefficients (min, max): 32335, 32478
  Pulay-stress correction: 0.000000 eV/Ang^3 (de/decut=0.000000)
  Using FFTW library
  ScaLapack parameters: grid=1x1, blocksize=None
  Wavefunction extrapolation:
    Improved wavefunction reuse through dual PAW basis 

Eigensolver
   Davidson(niter=2, smin=None, normalize=True) 

Densities:
  Coarse grid: 40*32*160 grid
  Fine grid: 80*64*320 grid
  Total Charge: 0.000000 

Density mixing:
  Method: separate
  Backend: pulay
  Linear mixing parameter: 0.05
  Mixing with 5 old densities
  Damping of long wave oscillations: 50 

Hamiltonian:
  XC and Coulomb potentials evaluated on a 80*64*320 grid
  Using the vdW-DF-cx Exchange-Correlation functional
 

XC parameters: vdW-DF-cx with libvdwxc
  Mode: mpi with 32 cores
  Semilocal: GGA_X_LV_RPW86+LDA_C_PW with 2 nearest neighbor stencil
  Local blocksize: 3 x 64 x 320
  PAW datasets: PBE

Memory estimate:
  Process memory now: 214.25 MiB
  Calculator: 106.40 MiB
    Density: 24.81 MiB
      Arrays: 10.16 MiB
      Localized functions: 10.74 MiB
      Mixer: 3.91 MiB
    Hamiltonian: 6.90 MiB
      Arrays: 6.64 MiB
      XC: 0.00 MiB
      Poisson: 0.00 MiB
      vbar: 0.26 MiB
    Wavefunctions: 74.69 MiB
      Arrays psit_nG: 31.22 MiB
      Eigensolver: 34.31 MiB
      Projections: 0.08 MiB
      Projectors: 1.05 MiB
      PW-descriptor: 8.03 MiB

Total number of cores used: 32
Parallelization over k-points: 8
Domain decomposition: 1 x 1 x 4
                      2 x 2 x 8 (xc only)

Number of atoms: 49
Number of atomic orbitals: 196
Number of bands in calculation: 63
Number of valence electrons: 97
Bands to converge: occupied

... initialized

Initializing position-dependent things.

Density initialized from atomic densities
Creating initial wave functions:
  63 bands from LCAO basis set

     .----------------.  
    /|                |  
   / |                |  
  /  |                |  
 *   |                |  
 |   |                |  
 |   |                |  
 |   |                |  
 |   |                |  
 |   |                |  
 |   |                |  
 |   |                |  
 |   |                |  
 |   |                |  
 |   |                |  
 |   |                |  
 |   |                |  
 |   |                |  
 |   |                |  
 |   |                |  
 |   |                |  
 |   |                |  
 |   |                |  
 |   |                |  
 |   |                |  
 |  Li   N  Li   N Li Li 
 |   |                |  
 |   | Li       Li N  |  
 |   |Li LLi  Li Li   |  
 |   |                |  
 |Li |   N Li    N    |  
 |  Li      Li        |  
 |N  | Li  N    Li    |  
 Li  |LiLi    Li Li   |  
 |   |    Li          |  
 |   |   N Li    N Li |  
 |  Li      Li        |  
 |N  .-Li--N----Li----.  
 |  / Li Li   Li Li  /   
 Li/      Li        /    
 |/i       Li      /     
 *----------------*      

Positions:
   0 Li     1.753389    5.061850    0.000000    ( 0.0000,  0.0000,  0.0000)
   1 Li     0.000000    2.024928    0.000000    ( 0.0000,  0.0000,  0.0000)
   2 Li     3.506756    2.024928    0.000000    ( 0.0000,  0.0000,  0.0000)
   3 Li     5.260124    5.061850    0.000000    ( 0.0000,  0.0000,  0.0000)
   4 Li     1.753389    3.037256    1.946139    ( 0.0000,  0.0000,  0.0000)
   5 Li     0.000000    0.000334    1.946139    ( 0.0000,  0.0000,  0.0000)
   6 Li     3.506756    0.000334    1.946139    ( 0.0000,  0.0000,  0.0000)
   7 Li     5.260124    3.037256    1.946139    ( 0.0000,  0.0000,  0.0000)
   8 Li     1.753367    1.012631    1.946139    ( 0.0000,  0.0000,  0.0000)
   9 Li     0.000000    4.049553    1.946139    ( 0.0000,  0.0000,  0.0000)
  10 Li     3.506735    4.049553    1.946139    ( 0.0000,  0.0000,  0.0000)
  11 Li     5.260103    1.012631    1.946139    ( 0.0000,  0.0000,  0.0000)
  12 Li     1.701790    5.116474    3.974777    ( 0.0000,  0.0000,  0.0000)
  13 Li    -0.000800    2.040568    3.935990    ( 0.0000,  0.0000,  0.0000)
  14 Li     3.507572    2.063046    3.928750    ( 0.0000,  0.0000,  0.0000)
  15 Li     5.312015    5.116541    3.978528    ( 0.0000,  0.0000,  0.0000)
  16 Li     1.755207    3.079611    5.865636    ( 0.0000,  0.0000,  0.0000)
  17 Li     0.000778    0.037564    6.118823    ( 0.0000,  0.0000,  0.0000)
  18 Li     3.506364    0.045598    5.941914    ( 0.0000,  0.0000,  0.0000)
  19 Li     5.259032    3.078176    5.874115    ( 0.0000,  0.0000,  0.0000)
  20 Li     1.754420    1.049262    5.898512    ( 0.0000,  0.0000,  0.0000)
  21 Li     0.000821    4.097029    6.048368    ( 0.0000,  0.0000,  0.0000)
  22 Li     3.506322    4.084444    5.939535    ( 0.0000,  0.0000,  0.0000)
  23 Li     5.259794    1.050527    5.906252    ( 0.0000,  0.0000,  0.0000)
  24 Li     1.929117    5.074625    7.972954    ( 0.0000,  0.0000,  0.0000)
  25 Li     0.004695    2.137738    7.901021    ( 0.0000,  0.0000,  0.0000)
  26 Li     3.505566    2.075721    7.782462    ( 0.0000,  0.0000,  0.0000)
  27 Li     5.081448    5.073809    7.962403    ( 0.0000,  0.0000,  0.0000)
  28 Li     1.747531    3.156606    9.608905    ( 0.0000,  0.0000,  0.0000)
  29 Li    -0.000165   -0.000022    9.748636    ( 0.0000,  0.0000,  0.0000)
  30 Li     3.508364    0.152004   10.605951    ( 0.0000,  0.0000,  0.0000)
  31 Li     5.267816    3.157769    9.606444    ( 0.0000,  0.0000,  0.0000)
  32 Li     1.832358    1.034791    9.614551    ( 0.0000,  0.0000,  0.0000)
  33 Li     0.000490    4.132960   10.484947    ( 0.0000,  0.0000,  0.0000)
  34 Li     3.507247    4.069095   10.451496    ( 0.0000,  0.0000,  0.0000)
  35 Li     5.181775    1.033529    9.602072    ( 0.0000,  0.0000,  0.0000)
  36 N      1.753389    5.061910    1.929076    ( 0.0000,  0.0000,  0.0000)
  37 N      0.000000    2.024989    1.929076    ( 0.0000,  0.0000,  0.0000)
  38 N      3.506756    2.024989    1.929076    ( 0.0000,  0.0000,  0.0000)
  39 N      5.260124    5.061910    1.929076    ( 0.0000,  0.0000,  0.0000)
  40 N      1.757003    5.103588    5.965310    ( 0.0000,  0.0000,  0.0000)
  41 N      0.000308    2.070036    5.916010    ( 0.0000,  0.0000,  0.0000)
  42 N      3.507603    2.068684    5.838582    ( 0.0000,  0.0000,  0.0000)
  43 N      5.256784    5.103733    5.963609    ( 0.0000,  0.0000,  0.0000)
  44 N      1.780101    5.147632    9.955453    ( 0.0000,  0.0000,  0.0000)
  45 N     -0.000951    2.080846    9.846826    ( 0.0000,  0.0000,  0.0000)
  46 N      3.509024    2.114058    9.684462    ( 0.0000,  0.0000,  0.0000)
  47 N      5.236269    5.148413    9.963413    ( 0.0000,  0.0000,  0.0000)
  48 Li     6.984135    1.652077   11.671087    ( 0.0000,  0.0000,  0.0000)

Unit cell:
           periodic     x           y           z      points  spacing
  1. axis:    yes    7.013470    0.000000    0.000000    40     0.1753
  2. axis:    yes    0.000000    6.073843    0.000000    32     0.1898
  3. axis:    yes    0.000000    0.000000   29.936001   160     0.1871

  Lengths:   7.013470   6.073843  29.936001
  Angles:   90.000000  90.000000  90.000000

Effective grid spacing dv^(1/3) = 0.1840

                     log10-error:    total        iterations:
           time      wfs    density  energy       fermi  poisson
iter:   1  11:34:08                -186.529876    3             
iter:   2  11:34:19  -0.99  -0.51  -176.486808    32            
iter:   3  11:34:30  -0.37  -0.56  -182.415055    37            
iter:   4  11:34:41  -1.92  -0.55  -168.475365    32            
iter:   5  11:34:52  -2.83  -0.67  -166.918514    4             
iter:   6  11:35:04  -1.70  -0.68  -160.593834    32            
iter:   7  11:35:15  -1.54  -0.78  -157.794873    24            
iter:   8  11:35:26  -1.67  -0.86  -156.362546    5             
iter:   9  11:35:37  -1.18  -0.93  -173.927270    34            
iter:  10  11:35:48  -1.28  -0.64  -155.891492    33            
iter:  11  11:35:59  -1.99  -1.21  -156.172692    4             
iter:  12  11:36:10  -2.08  -1.26  -155.295348    4             
iter:  13  11:36:21  -2.66  -1.63  -155.278141    5             
iter:  14  11:36:32  -3.35  -1.46  -155.382785    4             
iter:  15  11:36:43  -2.76  -1.41  -155.459865    4             
iter:  16  11:36:54  -3.99  -1.40  -155.389095    3             
iter:  17  11:37:05  -4.28  -1.42  -155.234545    4             
iter:  18  11:37:16  -3.24  -1.48  -155.261805    3             
iter:  19  11:37:27  -2.92  -1.47  -155.168201    4             
iter:  20  11:37:38  -3.66  -1.51  -155.157994    4             
iter:  21  11:37:49  -3.15  -1.50  -155.064732    4             
iter:  22  11:38:00  -2.77  -1.49  -155.286594    4             
iter:  23  11:38:11  -2.49  -1.37  -155.203474    4             
iter:  24  11:38:23  -2.79  -1.49  -155.118904    4             
iter:  25  11:38:34  -3.87  -1.55  -155.160161    4             
iter:  26  11:38:45  -2.30  -1.52  -155.068890    32            
iter:  27  11:38:56  -3.37  -1.63  -155.037622    3             
iter:  28  11:39:07  -2.23  -1.67  -155.051264    5             
iter:  29  11:39:18  -3.23  -1.77  -155.061536    4             
iter:  30  11:39:29  -3.16  -1.66  -155.040816    4             
iter:  31  11:39:40  -3.79  -1.72  -154.983235    3             
iter:  32  11:39:51  -3.94  -1.94  -154.982540    3             
iter:  33  11:40:02  -4.02  -2.04  -154.981576    3             
iter:  34  11:40:13  -4.02  -2.07  -154.983736    3             
iter:  35  11:40:24  -4.43  -2.04  -154.987104    3             
iter:  36  11:40:35  -3.72  -2.00  -154.978941    4             
iter:  37  11:40:46  -4.55  -2.17  -154.977510    3             
iter:  38  11:40:57  -4.83  -2.22  -154.977107    2             
iter:  39  11:41:08  -3.81  -2.29  -154.978911    3             
iter:  40  11:41:19  -4.46  -2.30  -154.977520    3             
iter:  41  11:41:30  -4.74  -2.50  -154.976268    3             
iter:  42  11:41:41  -4.52  -2.64  -154.975786    3             
iter:  43  11:41:52  -4.34  -2.63  -154.974891    4             
iter:  44  11:42:03  -5.17  -3.03  -154.975034    3             
iter:  45  11:42:14  -5.49  -3.07  -154.975395    3             
iter:  46  11:42:25  -6.46  -3.21  -154.975085    2             
iter:  47  11:42:36  -5.89  -3.23  -154.975273    3             
iter:  48  11:42:47  -5.82  -3.30  -154.975374    3             
iter:  49  11:42:58  -6.23  -3.40  -154.975213    3             
iter:  50  11:43:09  -6.82  -3.72  -154.975158    3             
iter:  51  11:43:21  -7.00  -3.91  -154.975141    3             
iter:  52  11:43:32  -6.71  -3.97  -154.975082    3             
iter:  53  11:43:43  -7.95  -4.08  -154.975080    2             

Converged after 53 iterations.

Dipole moment: (0.293699, -2.573457, 5.466317) |e|*Ang

Energy contributions relative to reference atoms: (reference = -25283.807400)

Kinetic:       +172.135201
Potential:     -125.743309
External:        +0.000000
XC:            -200.317879
Entropy (-ST):   -0.020510
Local:           -1.038838
--------------------------
Free energy:   -154.985336
Extrapolated:  -154.975080

Non-local vdW-DF-cx correlation energy: 15.244110
Semilocal GGA_X_LV_RPW86+LDA_C_PW energy: -1087.416327
(Not including atomic contributions)
Fermi level: -0.87199

Showing only first 2 kpts
 Kpt  Band  Eigenvalues  Occupancy
  0    46     -1.33282    0.13333
  0    47     -0.77259    0.00468
  0    48     -0.65846    0.00011
  0    49     -0.26272    0.00000

  1    46     -1.35940    0.13333
  1    47     -1.07452    0.13318
  1    48     -0.79433    0.00932
  1    49     -0.25729    0.00000


No gap

Forces in eV/Ang:
  0 Li    0.00046   -0.00135   -0.10880
  1 Li   -0.00004   -0.00082   -0.11635
  2 Li    0.00004   -0.00115   -0.11380
  3 Li   -0.00049   -0.00135   -0.10811
  4 Li    0.00544    0.02121    0.04114
  5 Li   -0.00093    0.01046   -0.02215
  6 Li    0.00086   -0.00433    0.07548
  7 Li   -0.00569    0.02292    0.04112
  8 Li    0.01383    0.00722    0.01787
  9 Li   -0.00070    0.00097    0.01654
 10 Li    0.00100    0.02831    0.08488
 11 Li   -0.01366    0.00537    0.01802
 12 Li    0.05615   -0.05085    0.03820
 13 Li   -0.00425   -0.00934    0.15354
 14 Li    0.00493   -0.04033   -0.15269
 15 Li   -0.05596   -0.05117    0.01148
 16 Li   -0.06648    0.01195   -0.03451
 17 Li   -0.00180    0.05357    0.01231
 18 Li    0.00368   -0.03379   -0.08823
 19 Li    0.06536    0.02632   -0.05302
 20 Li   -0.07988    0.01271   -0.03241
 21 Li   -0.00279   -0.00955   -0.00066
 22 Li    0.00351    0.05673   -0.08788
 23 Li    0.07844   -0.00082   -0.05004
 24 Li   -0.00352    0.04609    0.05509
 25 Li    0.00137    0.03747   -0.13573
 26 Li   -0.00845    0.01504    0.04641
 27 Li    0.01164    0.04276    0.14983
 28 Li    0.00570   -0.00753    0.17778
 29 Li    0.01084   -0.00577   -0.09148
 30 Li    0.00592    0.11290   -0.08646
 31 Li   -0.00914   -0.00547    0.17532
 32 Li    0.04298    0.11714    0.19830
 33 Li    0.00715   -0.08070    0.14497
 34 Li    0.00240   -0.16703   -0.05081
 35 Li   -0.05445    0.11364    0.19384
 36 N    -0.05372    0.04593    0.07569
 37 N     0.00044    0.00762   -0.00959
 38 N    -0.00054    0.02437   -0.08883
 39 N     0.05376    0.04613    0.07934
 40 N     0.07271   -0.00976   -0.04007
 41 N     0.00560   -0.00265   -0.06425
 42 N    -0.00763   -0.02266   -0.05312
 43 N    -0.07122   -0.01095   -0.01693
 44 N    -0.08261   -0.05203    0.02008
 45 N     0.00797    0.00376   -0.20197
 46 N    -0.00820    0.05562   -0.02388
 47 N     0.07387   -0.04672   -0.03482
 48 Li   -0.00398   -0.21971   -0.08880

System changes: positions 

Initializing position-dependent things.

Density initialized from wave functions
     .----------------.  
    /|                |  
   / |                |  
  /  |                |  
 *   |                |  
 |   |                |  
 |   |                |  
 |   |                |  
 |   |                |  
 |   |                |  
 |   |                |  
 |   |                |  
 |   |                |  
 |   |                |  
 |   |                |  
 |   |                |  
 |   |                |  
 |   |                |  
 |   |                |  
 |   |                |  
 |   |                |  
 |   |                |  
 |   |                |  
 |   |                |  
 |   |                |  
 |  Li   N  Li   N Li Li 
 |   |                |  
 |   | Li       Li N  |  
 |   |Li LLi  Li Li   |  
 |   |                |  
 |Li |   N Li    N    |  
 |  Li      Li        |  
 |N  | Li  N    Li    |  
 Li  |LiLi    Li Li   |  
 |   |    Li          |  
 |   |   N Li    N Li |  
 |  Li      Li        |  
 |N  .-Li--N----Li----.  
 |  / Li Li   Li Li  /   
 Li/      Li        /    
 |/i       Li      /     
 *----------------*      

Positions:
   0 Li     1.753389    5.061850    0.000000    ( 0.0000,  0.0000,  0.0000)
   1 Li     0.000000    2.024928    0.000000    ( 0.0000,  0.0000,  0.0000)
   2 Li     3.506756    2.024928    0.000000    ( 0.0000,  0.0000,  0.0000)
   3 Li     5.260124    5.061850    0.000000    ( 0.0000,  0.0000,  0.0000)
   4 Li     1.753389    3.037256    1.946139    ( 0.0000,  0.0000,  0.0000)
   5 Li     0.000000    0.000334    1.946139    ( 0.0000,  0.0000,  0.0000)
   6 Li     3.506756    0.000334    1.946139    ( 0.0000,  0.0000,  0.0000)
   7 Li     5.260124    3.037256    1.946139    ( 0.0000,  0.0000,  0.0000)
   8 Li     1.753367    1.012631    1.946139    ( 0.0000,  0.0000,  0.0000)
   9 Li     0.000000    4.049553    1.946139    ( 0.0000,  0.0000,  0.0000)
  10 Li     3.506735    4.049553    1.946139    ( 0.0000,  0.0000,  0.0000)
  11 Li     5.260103    1.012631    1.946139    ( 0.0000,  0.0000,  0.0000)
  12 Li     1.702592    5.115747    3.975323    ( 0.0000,  0.0000,  0.0000)
  13 Li    -0.000860    2.040435    3.938184    ( 0.0000,  0.0000,  0.0000)
  14 Li     3.507642    2.062470    3.926568    ( 0.0000,  0.0000,  0.0000)
  15 Li     5.311216    5.115810    3.978692    ( 0.0000,  0.0000,  0.0000)
  16 Li     1.754257    3.079782    5.865143    ( 0.0000,  0.0000,  0.0000)
  17 Li     0.000752    0.038329    6.118999    ( 0.0000,  0.0000,  0.0000)
  18 Li     3.506417    0.045115    5.940653    ( 0.0000,  0.0000,  0.0000)
  19 Li     5.259966    3.078552    5.873358    ( 0.0000,  0.0000,  0.0000)
  20 Li     1.753279    1.049444    5.898049    ( 0.0000,  0.0000,  0.0000)
  21 Li     0.000781    4.096893    6.048359    ( 0.0000,  0.0000,  0.0000)
  22 Li     3.506372    4.085254    5.938280    ( 0.0000,  0.0000,  0.0000)
  23 Li     5.260915    1.050516    5.905538    ( 0.0000,  0.0000,  0.0000)
  24 Li     1.929067    5.075283    7.973741    ( 0.0000,  0.0000,  0.0000)
  25 Li     0.004714    2.138273    7.899082    ( 0.0000,  0.0000,  0.0000)
  26 Li     3.505446    2.075936    7.783125    ( 0.0000,  0.0000,  0.0000)
  27 Li     5.081614    5.074420    7.964543    ( 0.0000,  0.0000,  0.0000)
  28 Li     1.747613    3.156499    9.611445    ( 0.0000,  0.0000,  0.0000)
  29 Li    -0.000010   -0.000105    9.747329    ( 0.0000,  0.0000,  0.0000)
  30 Li     3.508449    0.153616   10.604716    ( 0.0000,  0.0000,  0.0000)
  31 Li     5.267686    3.157691    9.608949    ( 0.0000,  0.0000,  0.0000)
  32 Li     1.832972    1.036464    9.617384    ( 0.0000,  0.0000,  0.0000)
  33 Li     0.000592    4.131807   10.487018    ( 0.0000,  0.0000,  0.0000)
  34 Li     3.507281    4.066709   10.450770    ( 0.0000,  0.0000,  0.0000)
  35 Li     5.180997    1.035152    9.604841    ( 0.0000,  0.0000,  0.0000)
  36 N      1.753389    5.061910    1.929076    ( 0.0000,  0.0000,  0.0000)
  37 N      0.000000    2.024989    1.929076    ( 0.0000,  0.0000,  0.0000)
  38 N      3.506756    2.024989    1.929076    ( 0.0000,  0.0000,  0.0000)
  39 N      5.260124    5.061910    1.929076    ( 0.0000,  0.0000,  0.0000)
  40 N      1.758042    5.103449    5.964738    ( 0.0000,  0.0000,  0.0000)
  41 N      0.000388    2.069998    5.915093    ( 0.0000,  0.0000,  0.0000)
  42 N      3.507494    2.068360    5.837824    ( 0.0000,  0.0000,  0.0000)
  43 N      5.255766    5.103577    5.963367    ( 0.0000,  0.0000,  0.0000)
  44 N      1.778921    5.146888    9.955740    ( 0.0000,  0.0000,  0.0000)
  45 N     -0.000837    2.080900    9.843941    ( 0.0000,  0.0000,  0.0000)
  46 N      3.508907    2.114852    9.684121    ( 0.0000,  0.0000,  0.0000)
  47 N      5.237325    5.147746    9.962916    ( 0.0000,  0.0000,  0.0000)
  48 Li     6.984078    1.648938   11.669818    ( 0.0000,  0.0000,  0.0000)

Unit cell:
           periodic     x           y           z      points  spacing
  1. axis:    yes    7.013470    0.000000    0.000000    40     0.1753
  2. axis:    yes    0.000000    6.073843    0.000000    32     0.1898
  3. axis:    yes    0.000000    0.000000   29.936001   160     0.1871

  Lengths:   7.013470   6.073843  29.936001
  Angles:   90.000000  90.000000  90.000000

Effective grid spacing dv^(1/3) = 0.1840

                     log10-error:    total        iterations:
           time      wfs    density  energy       fermi  poisson
iter:   1  11:44:06  -4.39         -154.984395    3             
iter:   2  11:44:17  -5.27  -2.96  -154.982410    3             
iter:   3  11:44:28  -6.24  -2.96  -154.982809    3             
iter:   4  11:44:39  -5.71  -3.38  -154.982384    3             
iter:   5  11:44:50  -6.72  -3.24  -154.982586    3             
iter:   6  11:45:02  -6.84  -3.56  -154.982605    2             
iter:   7  11:45:13  -6.60  -3.68  -154.982714    3             
iter:   8  11:45:24  -7.50  -3.97  -154.982747    2             
iter:   9  11:45:35  -7.28  -4.08  -154.982735    2             

Converged after 9 iterations.

Dipole moment: (0.278472, -2.588924, 5.467880) |e|*Ang

Energy contributions relative to reference atoms: (reference = -25283.807400)

Kinetic:       +172.133908
Potential:     -125.750414
External:        +0.000000
XC:            -200.325401
Entropy (-ST):   -0.020431
Local:           -1.030612
--------------------------
Free energy:   -154.992950
Extrapolated:  -154.982735

Non-local vdW-DF-cx correlation energy: 15.244846
Semilocal GGA_X_LV_RPW86+LDA_C_PW energy: -1087.428532
(Not including atomic contributions)
Fermi level: -0.87326

Showing only first 2 kpts
 Kpt  Band  Eigenvalues  Occupancy
  0    46     -1.33449    0.13333
  0    47     -0.77491    0.00484
  0    48     -0.65976    0.00011
  0    49     -0.26196    0.00000

  1    46     -1.35948    0.13333
  1    47     -1.07677    0.13318
  1    48     -0.79548    0.00928
  1    49     -0.25748    0.00000


No gap

Forces in eV/Ang:
  0 Li    0.00058   -0.00132   -0.10899
  1 Li   -0.00004   -0.00079   -0.11603
  2 Li    0.00004   -0.00111   -0.11483
  3 Li   -0.00060   -0.00132   -0.10840
  4 Li    0.00455    0.02110    0.04101
  5 Li   -0.00080    0.01047   -0.02066
  6 Li    0.00075   -0.00452    0.07432
  7 Li   -0.00480    0.02277    0.04073
  8 Li    0.01286    0.00693    0.01810
  9 Li   -0.00059    0.00079    0.01744
 10 Li    0.00090    0.02824    0.08359
 11 Li   -0.01269    0.00515    0.01796
 12 Li    0.05378   -0.04925    0.03254
 13 Li   -0.00388   -0.00976    0.13119
 14 Li    0.00449   -0.03963   -0.13290
 15 Li   -0.05363   -0.04960    0.00961
 16 Li   -0.05294    0.01097   -0.03454
 17 Li   -0.00152    0.04076    0.01148
 18 Li    0.00324   -0.02211   -0.08530
 19 Li    0.05190    0.02264   -0.05173
 20 Li   -0.06497    0.01069   -0.03331
 21 Li   -0.00231   -0.00027   -0.00085
 22 Li    0.00311    0.04242   -0.08430
 23 Li    0.06374   -0.00026   -0.04969
 24 Li   -0.00191    0.04436    0.05010
 25 Li    0.00105    0.03766   -0.12607
 26 Li   -0.00785    0.01516    0.03426
 27 Li    0.00939    0.04105    0.13299
 28 Li   -0.00006   -0.00510    0.16564
 29 Li    0.00953   -0.00897   -0.09756
 30 Li    0.00534    0.09343   -0.08292
 31 Li   -0.00285   -0.00432    0.16345
 32 Li    0.03263    0.10458    0.18926
 33 Li    0.00630   -0.07172    0.14004
 34 Li    0.00216   -0.14561   -0.04516
 35 Li   -0.04275    0.10247    0.18415
 36 N    -0.05158    0.04541    0.07710
 37 N     0.00018    0.00803   -0.00441
 38 N    -0.00028    0.02425   -0.09596
 39 N     0.05156    0.04559    0.08059
 40 N     0.05311   -0.00738   -0.03307
 41 N     0.00413   -0.00003   -0.05788
 42 N    -0.00610   -0.01798   -0.05742
 43 N    -0.05204   -0.00845   -0.01172
 44 N    -0.06897   -0.03879    0.02620
 45 N     0.00624   -0.00104   -0.17076
 46 N    -0.00727    0.04951   -0.01041
 47 N     0.06244   -0.03418   -0.02077
 48 Li   -0.00357   -0.21756   -0.09655

System changes: positions 

Initializing position-dependent things.

Density initialized from wave functions
     .----------------.  
    /|                |  
   / |                |  
  /  |                |  
 *   |                |  
 |   |                |  
 |   |                |  
 |   |                |  
 |   |                |  
 |   |                |  
 |   |                |  
 |   |                |  
 |   |                |  
 |   |                |  
 |   |                |  
 |   |                |  
 |   |                |  
 |   |                |  
 |   |                |  
 |   |                |  
 |   |                |  
 |   |                |  
 |   |                |  
 |   |                |  
 |   |                |  
 |  Lii  N  Li   N    |  
 |   |             Li |  
 |N  | Li       Li    |  
 |   |Li LLi  Li Li   |  
 |   |                |  
 |Li |   N Li    N    |  
 |  Li      Li        |  
 |N  | Li  N    Li    |  
 Li  |Li Li   Li Li   |  
 |   |    Li          |  
 |   |   N Li    N Li |  
 |  Li      Li        |  
 |N  .-Li--N----Li----.  
 |  / Li Li   Li Li  /   
 Li/      Li        /    
 |/i       Li      /     
 *----------------*      

Positions:
   0 Li     1.753389    5.061850    0.000000    ( 0.0000,  0.0000,  0.0000)
   1 Li     0.000000    2.024928    0.000000    ( 0.0000,  0.0000,  0.0000)
   2 Li     3.506756    2.024928    0.000000    ( 0.0000,  0.0000,  0.0000)
   3 Li     5.260124    5.061850    0.000000    ( 0.0000,  0.0000,  0.0000)
   4 Li     1.753389    3.037256    1.946139    ( 0.0000,  0.0000,  0.0000)
   5 Li     0.000000    0.000334    1.946139    ( 0.0000,  0.0000,  0.0000)
   6 Li     3.506756    0.000334    1.946139    ( 0.0000,  0.0000,  0.0000)
   7 Li     5.260124    3.037256    1.946139    ( 0.0000,  0.0000,  0.0000)
   8 Li     1.753367    1.012631    1.946139    ( 0.0000,  0.0000,  0.0000)
   9 Li     0.000000    4.049553    1.946139    ( 0.0000,  0.0000,  0.0000)
  10 Li     3.506735    4.049553    1.946139    ( 0.0000,  0.0000,  0.0000)
  11 Li     5.260103    1.012631    1.946139    ( 0.0000,  0.0000,  0.0000)
  12 Li     1.711501    5.107595    3.980756    ( 0.0000,  0.0000,  0.0000)
  13 Li    -0.001505    2.038827    3.960083    ( 0.0000,  0.0000,  0.0000)
  14 Li     3.508388    2.055915    3.904412    ( 0.0000,  0.0000,  0.0000)
  15 Li     5.302332    5.107600    3.980298    ( 0.0000,  0.0000,  0.0000)
  16 Li     1.745375    3.081605    5.859438    ( 0.0000,  0.0000,  0.0000)
  17 Li     0.000499    0.045192    6.120904    ( 0.0000,  0.0000,  0.0000)
  18 Li     3.506957    0.041345    5.926532    ( 0.0000,  0.0000,  0.0000)
  19 Li     5.268675    3.082329    5.864798    ( 0.0000,  0.0000,  0.0000)
  20 Li     1.742395    1.051230    5.892554    ( 0.0000,  0.0000,  0.0000)
  21 Li     0.000394    4.096755    6.048220    ( 0.0000,  0.0000,  0.0000)
  22 Li     3.506889    4.092407    5.924317    ( 0.0000,  0.0000,  0.0000)
  23 Li     5.271593    1.050467    5.897324    ( 0.0000,  0.0000,  0.0000)
  24 Li     1.928735    5.082630    7.982068    ( 0.0000,  0.0000,  0.0000)
  25 Li     0.004891    2.144493    7.878157    ( 0.0000,  0.0000,  0.0000)
  26 Li     3.504143    2.078439    7.788908    ( 0.0000,  0.0000,  0.0000)
  27 Li     5.083188    5.081219    7.986684    ( 0.0000,  0.0000,  0.0000)
  28 Li     1.747661    3.155632    9.638932    ( 0.0000,  0.0000,  0.0000)
  29 Li     0.001577   -0.001554    9.731272    ( 0.0000,  0.0000,  0.0000)
  30 Li     3.509337    0.169248   10.590980    ( 0.0000,  0.0000,  0.0000)
  31 Li     5.267151    3.156965    9.636070    ( 0.0000,  0.0000,  0.0000)
  32 Li     1.838467    1.053868    9.648742    ( 0.0000,  0.0000,  0.0000)
  33 Li     0.001642    4.119868   10.510203    ( 0.0000,  0.0000,  0.0000)
  34 Li     3.507641    4.042436   10.443252    ( 0.0000,  0.0000,  0.0000)
  35 Li     5.173817    1.052194    9.635362    ( 0.0000,  0.0000,  0.0000)
  36 N      1.753389    5.061910    1.929076    ( 0.0000,  0.0000,  0.0000)
  37 N      0.000000    2.024989    1.929076    ( 0.0000,  0.0000,  0.0000)
  38 N      3.506756    2.024989    1.929076    ( 0.0000,  0.0000,  0.0000)
  39 N      5.260124    5.061910    1.929076    ( 0.0000,  0.0000,  0.0000)
  40 N      1.767013    5.102206    5.959204    ( 0.0000,  0.0000,  0.0000)
  41 N      0.001085    2.069967    5.905466    ( 0.0000,  0.0000,  0.0000)
  42 N      3.506471    2.065342    5.828381    ( 0.0000,  0.0000,  0.0000)
  43 N      5.246976    5.102156    5.961379    ( 0.0000,  0.0000,  0.0000)
  44 N      1.767388    5.140347    9.960008    ( 0.0000,  0.0000,  0.0000)
  45 N      0.000211    2.080776    9.815415    ( 0.0000,  0.0000,  0.0000)
  46 N      3.507696    2.123093    9.682265    ( 0.0000,  0.0000,  0.0000)
  47 N      5.247755    5.141973    9.959343    ( 0.0000,  0.0000,  0.0000)
  48 Li     6.983485    1.612974   11.653947    ( 0.0000,  0.0000,  0.0000)

Unit cell:
           periodic     x           y           z      points  spacing
  1. axis:    yes    7.013470    0.000000    0.000000    40     0.1753
  2. axis:    yes    0.000000    6.073843    0.000000    32     0.1898
  3. axis:    yes    0.000000    0.000000   29.936001   160     0.1871

  Lengths:   7.013470   6.073843  29.936001
  Angles:   90.000000  90.000000  90.000000

Effective grid spacing dv^(1/3) = 0.1840

                     log10-error:    total        iterations:
           time      wfs    density  energy       fermi  poisson
iter:   1  11:45:58  -2.36         -155.071074    4             
iter:   2  11:46:09  -3.31  -2.01  -155.056789    5             
iter:   3  11:46:21  -4.27  -1.98  -155.034662    4             
iter:   4  11:46:32  -4.05  -2.34  -155.041901    3             
iter:   5  11:46:43  -4.09  -2.12  -155.025619    3             
iter:   6  11:46:54  -5.22  -2.55  -155.024974    2             
iter:   7  11:47:05  -4.72  -2.61  -155.024945    3             
iter:   8  11:47:17  -5.46  -3.05  -155.025573    3             
iter:   9  11:47:28  -5.77  -2.95  -155.025425    3             
iter:  10  11:47:39  -5.44  -3.07  -155.024794    3             
iter:  11  11:47:50  -6.16  -3.42  -155.024571    2             
iter:  12  11:48:02  -6.96  -3.46  -155.024718    2             
iter:  13  11:48:13  -7.22  -3.55  -155.024692    2             
iter:  14  11:48:24  -6.73  -3.63  -155.024735    2             
iter:  15  11:48:35  -7.02  -3.76  -155.024699    2             
iter:  16  11:48:46  -7.15  -3.87  -155.024682    2             
iter:  17  11:48:58  -7.97  -3.98  -155.024681    2             
iter:  18  11:49:09  -7.17  -4.03  -155.024693    2             

Converged after 18 iterations.

Dipole moment: (0.141113, -2.733968, 5.555365) |e|*Ang

Energy contributions relative to reference atoms: (reference = -25283.807400)

Kinetic:       +172.272158
Potential:     -125.846975
External:        +0.000000
XC:            -200.409875
Entropy (-ST):   -0.019975
Local:           -1.030014
--------------------------
Free energy:   -155.034681
Extrapolated:  -155.024693

Non-local vdW-DF-cx correlation energy: 15.251542
Semilocal GGA_X_LV_RPW86+LDA_C_PW energy: -1087.501461
(Not including atomic contributions)
Fermi level: -0.88712

Showing only first 2 kpts
 Kpt  Band  Eigenvalues  Occupancy
  0    46     -1.35321    0.13333
  0    47     -0.79908    0.00673
  0    48     -0.67236    0.00010
  0    49     -0.25695    0.00000

  1    46     -1.35902    0.13333
  1    47     -1.10023    0.13322
  1    48     -0.80641    0.00847
  1    49     -0.26280    0.00000


No gap

Forces in eV/Ang:
  0 Li   -0.00078   -0.00111   -0.10339
  1 Li    0.00004   -0.00067   -0.10788
  2 Li   -0.00004   -0.00102   -0.11331
  3 Li    0.00075   -0.00111   -0.10352
  4 Li   -0.00520    0.02026    0.04376
  5 Li    0.00053    0.01276   -0.00122
  6 Li   -0.00042   -0.01018    0.06802
  7 Li    0.00504    0.02090    0.04108
  8 Li    0.00198    0.00338    0.02501
  9 Li    0.00062   -0.00350    0.02958
 10 Li   -0.00016    0.03047    0.07633
 11 Li   -0.00173    0.00285    0.02232
 12 Li    0.02763   -0.02907   -0.02764
 13 Li    0.00080   -0.01320   -0.09692
 14 Li   -0.00091   -0.02958    0.05147
 15 Li   -0.02801   -0.02962   -0.01498
 16 Li    0.07540    0.00164   -0.03201
 17 Li   -0.00011   -0.07083    0.00643
 18 Li   -0.00034    0.07819   -0.04878
 19 Li   -0.07517   -0.00965   -0.03394
 20 Li    0.07885   -0.00867   -0.04129
 21 Li    0.00103    0.07665    0.00034
 22 Li   -0.00033   -0.08357   -0.03949
 23 Li   -0.07774    0.00192   -0.04278
 24 Li    0.01603    0.02200    0.00143
 25 Li   -0.00190    0.04092   -0.02498
 26 Li   -0.00229    0.01642   -0.07690
 27 Li   -0.01579    0.01913   -0.03221
 28 Li   -0.05990    0.01881    0.03545
 29 Li   -0.00235   -0.04921   -0.15511
 30 Li   -0.00194   -0.10098   -0.03555
 31 Li    0.06267    0.00946    0.03493
 32 Li   -0.07426   -0.00921    0.08675
 33 Li   -0.00140    0.02784    0.08870
 34 Li   -0.00177    0.06698    0.01711
 35 Li    0.07805   -0.00084    0.07336
 36 N    -0.03961    0.04075    0.07035
 37 N    -0.00160    0.01051    0.02229
 38 N     0.00153    0.02146   -0.17010
 39 N     0.03943    0.04076    0.07213
 40 N    -0.09791    0.01940    0.03498
 41 N    -0.00805    0.02094    0.03404
 42 N     0.00637    0.02258   -0.06957
 43 N     0.09661    0.01962    0.03254
 44 N     0.02731    0.06788    0.07546
 45 N    -0.00803   -0.03951    0.07902
 46 N     0.00300   -0.00763    0.11540
 47 N    -0.01745    0.06588    0.10174
 48 Li    0.00121   -0.20204   -0.15020

System changes: positions 

Initializing position-dependent things.

Density initialized from wave functions
     .----------------.  
    /|                |  
   / |                |  
  /  |                |  
 *   |                |  
 |   |                |  
 |   |                |  
 |   |                |  
 |   |                |  
 |   |                |  
 |   |                |  
 |   |                |  
 |   |                |  
 |   |                |  
 |   |                |  
 |   |                |  
 |   |                |  
 |   |                |  
 |   |                |  
 |   |                |  
 |   |                |  
 |   |                |  
 |   |                |  
 |   |                |  
 |   |                |  
 |  Lii  N  Li   N    |  
 |   |             Li |  
 |   | Li       Li    |  
 |N  |Li LLi  Li Li   |  
 |   |                |  
 |Li |   N Li    N    |  
 |  Li      Li        |  
 |N  | Li  N    Li    |  
 Li  |Li Li   Li Li   |  
 |   |    Li          |  
 |   |   N Li    N Li |  
 |  Li      Li        |  
 |N  .-Li--N----Li----.  
 |  / Li Li   Li Li  /   
 Li/      Li        /    
 |/i       Li      /     
 *----------------*      

Positions:
   0 Li     1.753389    5.061850    0.000000    ( 0.0000,  0.0000,  0.0000)
   1 Li     0.000000    2.024928    0.000000    ( 0.0000,  0.0000,  0.0000)
   2 Li     3.506756    2.024928    0.000000    ( 0.0000,  0.0000,  0.0000)
   3 Li     5.260124    5.061850    0.000000    ( 0.0000,  0.0000,  0.0000)
   4 Li     1.753389    3.037256    1.946139    ( 0.0000,  0.0000,  0.0000)
   5 Li     0.000000    0.000334    1.946139    ( 0.0000,  0.0000,  0.0000)
   6 Li     3.506756    0.000334    1.946139    ( 0.0000,  0.0000,  0.0000)
   7 Li     5.260124    3.037256    1.946139    ( 0.0000,  0.0000,  0.0000)
   8 Li     1.753367    1.012631    1.946139    ( 0.0000,  0.0000,  0.0000)
   9 Li     0.000000    4.049553    1.946139    ( 0.0000,  0.0000,  0.0000)
  10 Li     3.506735    4.049553    1.946139    ( 0.0000,  0.0000,  0.0000)
  11 Li     5.260103    1.012631    1.946139    ( 0.0000,  0.0000,  0.0000)
  12 Li     1.713225    5.105963    3.981151    ( 0.0000,  0.0000,  0.0000)
  13 Li    -0.001587    2.038395    3.961896    ( 0.0000,  0.0000,  0.0000)
  14 Li     3.508484    2.054512    3.901876    ( 0.0000,  0.0000,  0.0000)
  15 Li     5.300606    5.105952    3.980310    ( 0.0000,  0.0000,  0.0000)
  16 Li     1.745162    3.081899    5.858124    ( 0.0000,  0.0000,  0.0000)
  17 Li     0.000459    0.045181    6.121283    ( 0.0000,  0.0000,  0.0000)
  18 Li     3.507033    0.041922    5.923729    ( 0.0000,  0.0000,  0.0000)
  19 Li     5.268866    3.082751    5.863035    ( 0.0000,  0.0000,  0.0000)
  20 Li     1.741939    1.051367    5.891134    ( 0.0000,  0.0000,  0.0000)
  21 Li     0.000350    4.097848    6.048207    ( 0.0000,  0.0000,  0.0000)
  22 Li     3.506962    4.092252    5.921676    ( 0.0000,  0.0000,  0.0000)
  23 Li     5.272035    1.050485    5.895481    ( 0.0000,  0.0000,  0.0000)
  24 Li     1.928924    5.084037    7.983323    ( 0.0000,  0.0000,  0.0000)
  25 Li     0.004890    2.146017    7.874695    ( 0.0000,  0.0000,  0.0000)
  26 Li     3.503916    2.079051    7.788642    ( 0.0000,  0.0000,  0.0000)
  27 Li     5.083187    5.082503    7.989492    ( 0.0000,  0.0000,  0.0000)
  28 Li     1.746785    3.155781    9.643517    ( 0.0000,  0.0000,  0.0000)
  29 Li     0.001779   -0.002500    9.726614    ( 0.0000,  0.0000,  0.0000)
  30 Li     3.509439    0.170078   10.588434    ( 0.0000,  0.0000,  0.0000)
  31 Li     5.267996    3.156998    9.640593    ( 0.0000,  0.0000,  0.0000)
  32 Li     1.838185    1.056321    9.654653    ( 0.0000,  0.0000,  0.0000)
  33 Li     0.001778    4.118518   10.514941    ( 0.0000,  0.0000,  0.0000)
  34 Li     3.507666    4.039826   10.442395    ( 0.0000,  0.0000,  0.0000)
  35 Li     5.173906    1.054713    9.640949    ( 0.0000,  0.0000,  0.0000)
  36 N      1.753389    5.061910    1.929076    ( 0.0000,  0.0000,  0.0000)
  37 N      0.000000    2.024989    1.929076    ( 0.0000,  0.0000,  0.0000)
  38 N      3.506756    2.024989    1.929076    ( 0.0000,  0.0000,  0.0000)
  39 N      5.260124    5.061910    1.929076    ( 0.0000,  0.0000,  0.0000)
  40 N      1.766941    5.102310    5.958898    ( 0.0000,  0.0000,  0.0000)
  41 N      0.001072    2.070266    5.904566    ( 0.0000,  0.0000,  0.0000)
  42 N      3.506411    2.065222    5.825986    ( 0.0000,  0.0000,  0.0000)
  43 N      5.247057    5.102237    5.961556    ( 0.0000,  0.0000,  0.0000)
  44 N      1.766046    5.140354    9.961739    ( 0.0000,  0.0000,  0.0000)
  45 N      0.000251    2.080184    9.812297    ( 0.0000,  0.0000,  0.0000)
  46 N      3.507562    2.124205    9.683681    ( 0.0000,  0.0000,  0.0000)
  47 N      5.249074    5.142065    9.960295    ( 0.0000,  0.0000,  0.0000)
  48 Li     6.983416    1.604669   11.649407    ( 0.0000,  0.0000,  0.0000)

Unit cell:
           periodic     x           y           z      points  spacing
  1. axis:    yes    7.013470    0.000000    0.000000    40     0.1753
  2. axis:    yes    0.000000    6.073843    0.000000    32     0.1898
  3. axis:    yes    0.000000    0.000000   29.936001   160     0.1871

  Lengths:   7.013470   6.073843  29.936001
  Angles:   90.000000  90.000000  90.000000

Effective grid spacing dv^(1/3) = 0.1840

                     log10-error:    total        iterations:
           time      wfs    density  energy       fermi  poisson
iter:   1  11:49:32  -3.92         -155.031538    3             
iter:   2  11:49:43  -4.99  -2.88  -155.029805    3             
iter:   3  11:49:54  -5.90  -2.89  -155.030017    3             
iter:   4  11:50:06  -5.25  -3.05  -155.029532    3             
iter:   5  11:50:17  -6.22  -3.27  -155.029849    3             
iter:   6  11:50:28  -6.22  -3.50  -155.029672    3             
iter:   7  11:50:39  -6.39  -3.66  -155.029719    2             
iter:   8  11:50:51  -6.98  -3.75  -155.029785    3             
iter:   9  11:51:02  -7.29  -3.99  -155.029779    2             
iter:  10  11:51:13  -7.88  -4.14  -155.029757    2             

Converged after 10 iterations.

Dipole moment: (0.138153, -2.733561, 5.560731) |e|*Ang

Energy contributions relative to reference atoms: (reference = -25283.807400)

Kinetic:       +172.288533
Potential:     -125.859199
External:        +0.000000
XC:            -200.420357
Entropy (-ST):   -0.019987
Local:           -1.028740
--------------------------
Free energy:   -155.039751
Extrapolated:  -155.029757

Non-local vdW-DF-cx correlation energy: 15.252763
Semilocal GGA_X_LV_RPW86+LDA_C_PW energy: -1087.511459
(Not including atomic contributions)
Fermi level: -0.88975

Showing only first 2 kpts
 Kpt  Band  Eigenvalues  Occupancy
  0    46     -1.35536    0.13333
  0    47     -0.80243    0.00688
  0    48     -0.67481    0.00010
  0    49     -0.25872    0.00000

  1    46     -1.36036    0.13333
  1    47     -1.10370    0.13323
  1    48     -0.80872    0.00839
  1    49     -0.26520    0.00000


No gap

Forces in eV/Ang:
  0 Li   -0.00059   -0.00105   -0.10277
  1 Li    0.00004   -0.00062   -0.10679
  2 Li   -0.00005   -0.00089   -0.11377
  3 Li    0.00056   -0.00106   -0.10303
  4 Li   -0.00622    0.01980    0.04433
  5 Li    0.00069    0.01239    0.00221
  6 Li   -0.00057   -0.01028    0.06661
  7 Li    0.00608    0.02045    0.04131
  8 Li    0.00065    0.00295    0.02614
  9 Li    0.00077   -0.00347    0.03186
 10 Li   -0.00030    0.02977    0.07496
 11 Li   -0.00039    0.00242    0.02310
 12 Li    0.02099   -0.02565   -0.03360
 13 Li    0.00138   -0.01332   -0.11793
 14 Li   -0.00152   -0.02739    0.06453
 15 Li   -0.02141   -0.02618   -0.01662
 16 Li    0.07599    0.00072   -0.03068
 17 Li   -0.00001   -0.06765    0.00544
 18 Li   -0.00078    0.07377   -0.04093
 19 Li   -0.07569   -0.01219   -0.03066
 20 Li    0.08152   -0.00923   -0.04099
 21 Li    0.00124    0.07014   -0.00067
 22 Li   -0.00079   -0.08038   -0.03058
 23 Li   -0.08038    0.00284   -0.04057
 24 Li    0.01980    0.01926   -0.00166
 25 Li   -0.00225    0.04028   -0.00275
 26 Li   -0.00143    0.01556   -0.07143
 27 Li   -0.02047    0.01642   -0.04869
 28 Li   -0.06226    0.02212    0.01789
 29 Li   -0.00384   -0.05625   -0.16311
 30 Li   -0.00234   -0.11974   -0.02998
 31 Li    0.06536    0.01315    0.01816
 32 Li   -0.08003   -0.02055    0.07299
 33 Li   -0.00257    0.04290    0.08610
 34 Li   -0.00172    0.09168    0.02569
 35 Li    0.08520   -0.01249    0.05892
 36 N    -0.03676    0.03999    0.07141
 37 N    -0.00180    0.01085    0.02581
 38 N     0.00171    0.02111   -0.17932
 39 N     0.03657    0.03999    0.07252
 40 N    -0.09484    0.02045    0.03665
 41 N    -0.00861    0.02236    0.03264
 42 N     0.00721    0.02538   -0.06990
 43 N     0.09345    0.02088    0.03133
 44 N     0.03998    0.07588    0.08113
 45 N    -0.00906   -0.03712    0.09615
 46 N     0.00385   -0.01566    0.11192
 47 N    -0.02758    0.07366    0.11823
 48 Li    0.00147   -0.20235   -0.14105

System changes: positions 

Initializing position-dependent things.

Density initialized from wave functions
     .----------------.  
    /|                |  
   / |                |  
  /  |                |  
 *   |                |  
 |   |                |  
 |   |                |  
 |   |                |  
 |   |                |  
 |   |                |  
 |   |                |  
 |   |                |  
 |   |                |  
 |   |                |  
 |   |                |  
 |   |                |  
 |   |                |  
 |   |                |  
 |   |                |  
 |   |                |  
 |   |                |  
 |   |                |  
 |   |                |  
 |   |                |  
 |   |                |  
 |  Lii  N  Li   N    |  
 |   |             Li |  
 |   | Li       Li    |  
 |N  |Li LLi  Li Li   |  
 |   |                |  
 |Li |   N Li    N    |  
 |  Li      Li        |  
 |N  | Li  N    Li    |  
 Li  |Li Li   Li Li   |  
 |   |    Li          |  
 |   |   N Li    N Li |  
 |  Li      Li        |  
 |N  .-Li--N----Li----.  
 |  / Li Li   Li Li  /   
 Li/      Li        /    
 |/i       Li      /     
 *----------------*      

Positions:
   0 Li     1.753389    5.061850    0.000000    ( 0.0000,  0.0000,  0.0000)
   1 Li     0.000000    2.024928    0.000000    ( 0.0000,  0.0000,  0.0000)
   2 Li     3.506756    2.024928    0.000000    ( 0.0000,  0.0000,  0.0000)
   3 Li     5.260124    5.061850    0.000000    ( 0.0000,  0.0000,  0.0000)
   4 Li     1.753389    3.037256    1.946139    ( 0.0000,  0.0000,  0.0000)
   5 Li     0.000000    0.000334    1.946139    ( 0.0000,  0.0000,  0.0000)
   6 Li     3.506756    0.000334    1.946139    ( 0.0000,  0.0000,  0.0000)
   7 Li     5.260124    3.037256    1.946139    ( 0.0000,  0.0000,  0.0000)
   8 Li     1.753367    1.012631    1.946139    ( 0.0000,  0.0000,  0.0000)
   9 Li     0.000000    4.049553    1.946139    ( 0.0000,  0.0000,  0.0000)
  10 Li     3.506735    4.049553    1.946139    ( 0.0000,  0.0000,  0.0000)
  11 Li     5.260103    1.012631    1.946139    ( 0.0000,  0.0000,  0.0000)
  12 Li     1.724481    5.094926    3.981735    ( 0.0000,  0.0000,  0.0000)
  13 Li    -0.002003    2.035125    3.966584    ( 0.0000,  0.0000,  0.0000)
  14 Li     3.508973    2.044737    3.889873    ( 0.0000,  0.0000,  0.0000)
  15 Li     5.289318    5.094790    3.979521    ( 0.0000,  0.0000,  0.0000)
  16 Li     1.747424    3.083699    5.848706    ( 0.0000,  0.0000,  0.0000)
  17 Li     0.000210    0.042128    6.123831    ( 0.0000,  0.0000,  0.0000)
  18 Li     3.507444    0.048678    5.904997    ( 0.0000,  0.0000,  0.0000)
  19 Li     5.266489    3.084669    5.850956    ( 0.0000,  0.0000,  0.0000)
  20 Li     1.743057    1.051758    5.880531    ( 0.0000,  0.0000,  0.0000)
  21 Li     0.000147    4.107508    6.048063    ( 0.0000,  0.0000,  0.0000)
  22 Li     3.507351    4.087724    5.904469    ( 0.0000,  0.0000,  0.0000)
  23 Li     5.270887    1.050757    5.882398    ( 0.0000,  0.0000,  0.0000)
  24 Li     1.931170    5.093428    7.990809    ( 0.0000,  0.0000,  0.0000)
  25 Li     0.004762    2.157217    7.854305    ( 0.0000,  0.0000,  0.0000)
  26 Li     3.502493    2.083495    7.783930    ( 0.0000,  0.0000,  0.0000)
  27 Li     5.082014    5.091009    8.003728    ( 0.0000,  0.0000,  0.0000)
  28 Li     1.738397    3.157861    9.671672    ( 0.0000,  0.0000,  0.0000)
  29 Li     0.002775   -0.011248    9.690125    ( 0.0000,  0.0000,  0.0000)
  30 Li     3.509931    0.168766   10.571701    ( 0.0000,  0.0000,  0.0000)
  31 Li     5.276355    3.157983    9.668407    ( 0.0000,  0.0000,  0.0000)
  32 Li     1.832459    1.069939    9.693654    ( 0.0000,  0.0000,  0.0000)
  33 Li     0.002442    4.112920   10.547872    ( 0.0000,  0.0000,  0.0000)
  34 Li     3.507742    4.029161   10.438730    ( 0.0000,  0.0000,  0.0000)
  35 Li     5.178748    1.069093    9.677282    ( 0.0000,  0.0000,  0.0000)
  36 N      1.753389    5.061910    1.929076    ( 0.0000,  0.0000,  0.0000)
  37 N      0.000000    2.024989    1.929076    ( 0.0000,  0.0000,  0.0000)
  38 N      3.506756    2.024989    1.929076    ( 0.0000,  0.0000,  0.0000)
  39 N      5.260124    5.061910    1.929076    ( 0.0000,  0.0000,  0.0000)
  40 N      1.762324    5.103957    5.958799    ( 0.0000,  0.0000,  0.0000)
  41 N      0.000573    2.073188    5.900608    ( 0.0000,  0.0000,  0.0000)
  42 N      3.506406    2.065772    5.808125    ( 0.0000,  0.0000,  0.0000)
  43 N      5.251668    5.103773    5.964034    ( 0.0000,  0.0000,  0.0000)
  44 N      1.760111    5.144210    9.976346    ( 0.0000,  0.0000,  0.0000)
  45 N      0.000036    2.074954    9.798239    ( 0.0000,  0.0000,  0.0000)
  46 N      3.506959    2.129955    9.697416    ( 0.0000,  0.0000,  0.0000)
  47 N      5.255536    5.146328    9.972300    ( 0.0000,  0.0000,  0.0000)
  48 Li     6.983071    1.544298   11.615454    ( 0.0000,  0.0000,  0.0000)

Unit cell:
           periodic     x           y           z      points  spacing
  1. axis:    yes    7.013470    0.000000    0.000000    40     0.1753
  2. axis:    yes    0.000000    6.073843    0.000000    32     0.1898
  3. axis:    yes    0.000000    0.000000   29.936001   160     0.1871

  Lengths:   7.013470   6.073843  29.936001
  Angles:   90.000000  90.000000  90.000000

Effective grid spacing dv^(1/3) = 0.1840

                     log10-error:    total        iterations:
           time      wfs    density  energy       fermi  poisson
iter:   1  11:51:36  -2.25         -155.113059    5             
iter:   2  11:51:48  -3.33  -2.01  -155.087057    4             
iter:   3  11:51:59  -4.24  -2.05  -155.076909    4             
iter:   4  11:52:10  -3.74  -2.28  -155.066691    3             
iter:   5  11:52:22  -4.22  -2.22  -155.064018    4             
iter:   6  11:52:33  -4.46  -2.53  -155.059332    3             
iter:   7  11:52:44  -4.59  -2.76  -155.059198    3             
iter:   8  11:52:56  -5.06  -2.53  -155.060316    4             
iter:   9  11:53:07  -5.44  -2.81  -155.057540    3             
iter:  10  11:53:19  -5.65  -3.04  -155.058150    3             
iter:  11  11:53:30  -6.14  -3.30  -155.057944    3             
iter:  12  11:53:41  -6.18  -3.44  -155.057657    3             
iter:  13  11:53:53  -7.11  -3.42  -155.057860    3             
iter:  14  11:54:04  -7.12  -3.68  -155.057821    3             
iter:  15  11:54:15  -6.91  -3.75  -155.057822    2             
iter:  16  11:54:27  -7.34  -3.87  -155.057846    2             
iter:  17  11:54:38  -7.47  -4.12  -155.057854    2             

Converged after 17 iterations.

Dipole moment: (0.187242, -2.645504, 5.562991) |e|*Ang

Energy contributions relative to reference atoms: (reference = -25283.807400)

Kinetic:       +172.221153
Potential:     -125.797982
External:        +0.000000
XC:            -200.442460
Entropy (-ST):   -0.020059
Local:           -1.028536
--------------------------
Free energy:   -155.067883
Extrapolated:  -155.057854

Non-local vdW-DF-cx correlation energy: 15.259671
Semilocal GGA_X_LV_RPW86+LDA_C_PW energy: -1087.539738
(Not including atomic contributions)
Fermi level: -0.90865

Showing only first 2 kpts
 Kpt  Band  Eigenvalues  Occupancy
  0    46     -1.36762    0.13333
  0    47     -0.82333    0.00733
  0    48     -0.69462    0.00011
  0    49     -0.27738    0.00000

  1    46     -1.37548    0.13333
  1    47     -1.12489    0.13323
  1    48     -0.82821    0.00855
  1    49     -0.28406    0.00000


No gap

Forces in eV/Ang:
  0 Li   -0.00100   -0.00079   -0.10274
  1 Li    0.00007   -0.00043   -0.10582
  2 Li   -0.00008   -0.00068   -0.11575
  3 Li    0.00097   -0.00080   -0.10330
  4 Li   -0.00982    0.01737    0.04309
  5 Li    0.00120    0.01127    0.01814
  6 Li   -0.00107   -0.01366    0.05554
  7 Li    0.00977    0.01757    0.03877
  8 Li   -0.00526   -0.00035    0.02842
  9 Li    0.00128   -0.00503    0.03944
 10 Li   -0.00081    0.02684    0.06500
 11 Li    0.00561   -0.00043    0.02414
 12 Li   -0.02607   -0.00144   -0.05415
 13 Li    0.00498   -0.01202   -0.17969
 14 Li   -0.00517   -0.00917    0.08706
 15 Li    0.02569   -0.00161   -0.02125
 16 Li    0.02653   -0.00312   -0.01761
 17 Li   -0.00084    0.00904    0.00118
 18 Li   -0.00191   -0.00819    0.01477
 19 Li   -0.02642   -0.01656   -0.00534
 20 Li    0.04087   -0.00551   -0.03341
 21 Li    0.00055   -0.01656   -0.00581
 22 Li   -0.00214    0.00173    0.03063
 23 Li   -0.04077    0.00667   -0.02063
 24 Li    0.03908    0.00216   -0.00782
 25 Li   -0.00400    0.03326    0.13488
 26 Li    0.00372    0.00604    0.01891
 27 Li   -0.04340   -0.00036   -0.10508
 28 Li   -0.05895    0.03900   -0.08125
 29 Li   -0.00938   -0.10563   -0.20032
 30 Li   -0.00318   -0.18263    0.00568
 31 Li    0.06248    0.03952   -0.07580
 32 Li   -0.08152   -0.06292   -0.00777
 33 Li   -0.00788    0.13751    0.08149
 34 Li   -0.00090    0.19166    0.07716
 35 Li    0.09139   -0.06304   -0.02482
 36 N    -0.02134    0.03400    0.06739
 37 N    -0.00268    0.01197    0.02254
 38 N     0.00260    0.01631   -0.21614
 39 N     0.02111    0.03389    0.06931
 40 N    -0.00006    0.01805    0.03546
 41 N    -0.00308    0.01636    0.00552
 42 N     0.00529    0.03191   -0.01648
 43 N    -0.00134    0.01880    0.00672
 44 N     0.06138    0.07299    0.07892
 45 N    -0.00769    0.00291    0.13352
 46 N     0.00621   -0.04486    0.02749
 47 N    -0.04549    0.06869    0.13988
 48 Li    0.00155   -0.22029   -0.03498

System changes: positions 

Initializing position-dependent things.

Density initialized from wave functions
     .----------------.  
    /|                |  
   / |                |  
  /  |                |  
 *   |                |  
 |   |                |  
 |   |                |  
 |   |                |  
 |   |                |  
 |   |                |  
 |   |                |  
 |   |                |  
 |   |                |  
 |   |                |  
 |   |                |  
 |   |                |  
 |   |                |  
 |   |                |  
 |   |                |  
 |   |                |  
 |   |                |  
 |   |                |  
 |   |                |  
 |   |                |  
 |   |                |  
 |  Lii  N  Li   N    |  
 |   |             Li |  
 |   | Li       Li    |  
 |   |Li LLi  Li LiN  |  
 |   |                |  
 |Li |   N Li    N    |  
 |  Li      Li        |  
 |N  | Li  N    Li    |  
 Li  |Li Li   Li Li   |  
 |   |    Li          |  
 |   |   N Li    N Li |  
 |  Li      Li        |  
 |N  .-Li--N----Li----.  
 |  / Li Li   Li Li  /   
 Li/      Li        /    
 |/i       Li      /     
 *----------------*      

Positions:
   0 Li     1.753389    5.061850    0.000000    ( 0.0000,  0.0000,  0.0000)
   1 Li     0.000000    2.024928    0.000000    ( 0.0000,  0.0000,  0.0000)
   2 Li     3.506756    2.024928    0.000000    ( 0.0000,  0.0000,  0.0000)
   3 Li     5.260124    5.061850    0.000000    ( 0.0000,  0.0000,  0.0000)
   4 Li     1.753389    3.037256    1.946139    ( 0.0000,  0.0000,  0.0000)
   5 Li     0.000000    0.000334    1.946139    ( 0.0000,  0.0000,  0.0000)
   6 Li     3.506756    0.000334    1.946139    ( 0.0000,  0.0000,  0.0000)
   7 Li     5.260124    3.037256    1.946139    ( 0.0000,  0.0000,  0.0000)
   8 Li     1.753367    1.012631    1.946139    ( 0.0000,  0.0000,  0.0000)
   9 Li     0.000000    4.049553    1.946139    ( 0.0000,  0.0000,  0.0000)
  10 Li     3.506735    4.049553    1.946139    ( 0.0000,  0.0000,  0.0000)
  11 Li     5.260103    1.012631    1.946139    ( 0.0000,  0.0000,  0.0000)
  12 Li     1.729121    5.089842    3.980284    ( 0.0000,  0.0000,  0.0000)
  13 Li    -0.002052    2.033291    3.962746    ( 0.0000,  0.0000,  0.0000)
  14 Li     3.509045    2.039994    3.887979    ( 0.0000,  0.0000,  0.0000)
  15 Li     5.284649    5.089641    3.978432    ( 0.0000,  0.0000,  0.0000)
  16 Li     1.750673    3.084392    5.843887    ( 0.0000,  0.0000,  0.0000)
  17 Li     0.000090    0.039355    6.125027    ( 0.0000,  0.0000,  0.0000)
  18 Li     3.507566    0.053110    5.896692    ( 0.0000,  0.0000,  0.0000)
  19 Li     5.263203    3.084896    5.845272    ( 0.0000,  0.0000,  0.0000)
  20 Li     1.746204    1.051596    5.874719    ( 0.0000,  0.0000,  0.0000)
  21 Li     0.000099    4.112898    6.047923    ( 0.0000,  0.0000,  0.0000)
  22 Li     3.507460    4.083917    5.897292    ( 0.0000,  0.0000,  0.0000)
  23 Li     5.267758    1.051021    5.875813    ( 0.0000,  0.0000,  0.0000)
  24 Li     1.933163    5.097698    7.993650    ( 0.0000,  0.0000,  0.0000)
  25 Li     0.004591    2.163260    7.848106    ( 0.0000,  0.0000,  0.0000)
  26 Li     3.501943    2.085764    7.780508    ( 0.0000,  0.0000,  0.0000)
  27 Li     5.080369    5.094814    8.006638    ( 0.0000,  0.0000,  0.0000)
  28 Li     1.732512    3.159859    9.682135    ( 0.0000,  0.0000,  0.0000)
  29 Li     0.002943   -0.017878    9.668243    ( 0.0000,  0.0000,  0.0000)
  30 Li     3.510013    0.162413   10.564368    ( 0.0000,  0.0000,  0.0000)
  31 Li     5.282365    3.159334    9.678819    ( 0.0000,  0.0000,  0.0000)
  32 Li     1.826854    1.073958    9.710999    ( 0.0000,  0.0000,  0.0000)
  33 Li     0.002528    4.113956   10.564530    ( 0.0000,  0.0000,  0.0000)
  34 Li     3.507705    4.030099   10.439143    ( 0.0000,  0.0000,  0.0000)
  35 Li     5.184280    1.073610    9.692926    ( 0.0000,  0.0000,  0.0000)
  36 N      1.753389    5.061910    1.929076    ( 0.0000,  0.0000,  0.0000)
  37 N      0.000000    2.024989    1.929076    ( 0.0000,  0.0000,  0.0000)
  38 N      3.506756    2.024989    1.929076    ( 0.0000,  0.0000,  0.0000)
  39 N      5.260124    5.061910    1.929076    ( 0.0000,  0.0000,  0.0000)
  40 N      1.758159    5.105427    5.960301    ( 0.0000,  0.0000,  0.0000)
  41 N      0.000132    2.075135    5.900108    ( 0.0000,  0.0000,  0.0000)
  42 N      3.506648    2.067122    5.799200    ( 0.0000,  0.0000,  0.0000)
  43 N      5.255778    5.105218    5.965938    ( 0.0000,  0.0000,  0.0000)
  44 N      1.759415    5.148660    9.985350    ( 0.0000,  0.0000,  0.0000)
  45 N     -0.000377    2.071984    9.796974    ( 0.0000,  0.0000,  0.0000)
  46 N      3.506912    2.131243    9.706196    ( 0.0000,  0.0000,  0.0000)
  47 N      5.256946    5.150806    9.981978    ( 0.0000,  0.0000,  0.0000)
  48 Li     6.982995    1.511432   11.597748    ( 0.0000,  0.0000,  0.0000)

Unit cell:
           periodic     x           y           z      points  spacing
  1. axis:    yes    7.013470    0.000000    0.000000    40     0.1753
  2. axis:    yes    0.000000    6.073843    0.000000    32     0.1898
  3. axis:    yes    0.000000    0.000000   29.936001   160     0.1871

  Lengths:   7.013470   6.073843  29.936001
  Angles:   90.000000  90.000000  90.000000

Effective grid spacing dv^(1/3) = 0.1840

                     log10-error:    total        iterations:
           time      wfs    density  energy       fermi  poisson
iter:   1  11:55:01  -2.79         -155.086416    4             
iter:   2  11:55:12  -3.95  -2.37  -155.078668    4             
iter:   3  11:55:24  -4.79  -2.43  -155.077649    3             
iter:   4  11:55:35  -4.07  -2.54  -155.071667    3             
iter:   5  11:55:46  -5.28  -2.78  -155.072962    3             
iter:   6  11:55:57  -4.79  -2.87  -155.071560    3             
iter:   7  11:56:09  -5.11  -3.16  -155.071568    3             
iter:   8  11:56:20  -5.61  -3.10  -155.071643    3             
iter:   9  11:56:31  -6.22  -3.51  -155.071590    2             
iter:  10  11:56:42  -6.37  -3.61  -155.071721    3             
iter:  11  11:56:53  -6.97  -3.66  -155.071628    3             
iter:  12  11:57:05  -7.86  -3.85  -155.071612    2             
iter:  13  11:57:16  -7.28  -3.89  -155.071581    2             
iter:  14  11:57:27  -7.46  -4.01  -155.071608    2             

Converged after 14 iterations.

Dipole moment: (0.251868, -2.530682, 5.538735) |e|*Ang

Energy contributions relative to reference atoms: (reference = -25283.807400)

Kinetic:       +172.073597
Potential:     -125.689260
External:        +0.000000
XC:            -200.417071
Entropy (-ST):   -0.020214
Local:           -1.028767
--------------------------
Free energy:   -155.081715
Extrapolated:  -155.071608

Non-local vdW-DF-cx correlation energy: 15.261860
Semilocal GGA_X_LV_RPW86+LDA_C_PW energy: -1087.525919
(Not including atomic contributions)
Fermi level: -0.91771

Showing only first 2 kpts
 Kpt  Band  Eigenvalues  Occupancy
  0    46     -1.36866    0.13333
  0    47     -0.83029    0.00686
  0    48     -0.70534    0.00011
  0    49     -0.29157    0.00000

  1    46     -1.38783    0.13333
  1    47     -1.13196    0.13323
  1    48     -0.83916    0.00906
  1    49     -0.29557    0.00000


No gap

Forces in eV/Ang:
  0 Li   -0.00091   -0.00068   -0.10458
  1 Li    0.00005   -0.00031   -0.10780
  2 Li   -0.00006   -0.00050   -0.11775
  3 Li    0.00087   -0.00068   -0.10512
  4 Li   -0.00959    0.01590    0.04112
  5 Li    0.00112    0.00948    0.02258
  6 Li   -0.00103   -0.01391    0.04996
  7 Li    0.00955    0.01616    0.03671
  8 Li   -0.00617   -0.00155    0.02759
  9 Li    0.00124   -0.00449    0.04059
 10 Li   -0.00080    0.02391    0.06029
 11 Li    0.00654   -0.00176    0.02329
 12 Li   -0.04750    0.00896   -0.04709
 13 Li    0.00585   -0.00988   -0.14934
 14 Li   -0.00594    0.00026    0.05230
 15 Li    0.04738    0.00905   -0.01639
 16 Li   -0.02885   -0.00332   -0.00862
 17 Li   -0.00113    0.07639   -0.00087
 18 Li   -0.00200   -0.07148    0.04116
 19 Li    0.02858   -0.01110    0.00666
 20 Li   -0.01382    0.00254   -0.02502
 21 Li   -0.00026   -0.08060   -0.00945
 22 Li   -0.00227    0.07237    0.05784
 23 Li    0.01286    0.00930   -0.00914
 24 Li    0.04972   -0.00327   -0.00024
 25 Li   -0.00391    0.02783    0.18348
 26 Li    0.00526   -0.00062    0.08401
 27 Li   -0.05390   -0.00569   -0.09297
 28 Li   -0.03760    0.04201   -0.10747
 29 Li   -0.00905   -0.12243   -0.20646
 30 Li   -0.00143   -0.16072    0.01384
 31 Li    0.03952    0.05034   -0.09915
 32 Li   -0.04800   -0.05811   -0.03050
 33 Li   -0.00866    0.16451    0.09466
 34 Li    0.00063    0.18525    0.09009
 35 Li    0.05607   -0.06535   -0.04684
 36 N    -0.01538    0.03127    0.06692
 37 N    -0.00274    0.01180    0.01401
 38 N     0.00269    0.01401   -0.21962
 39 N     0.01516    0.03114    0.06913
 40 N     0.08806    0.00883    0.01123
 41 N     0.00266    0.00535   -0.04380
 42 N     0.00122    0.02163    0.02657
 43 N    -0.08904    0.00919   -0.02108
 44 N     0.04393    0.04161    0.06290
 45 N    -0.00233    0.03417    0.09860
 46 N     0.00507   -0.04369   -0.04997
 47 N    -0.03184    0.03806    0.11815
 48 Li    0.00024   -0.23521    0.04095

System changes: positions 

Initializing position-dependent things.

Density initialized from wave functions
     .----------------.  
    /|                |  
   / |                |  
  /  |                |  
 *   |                |  
 |   |                |  
 |   |                |  
 |   |                |  
 |   |                |  
 |   |                |  
 |   |                |  
 |   |                |  
 |   |                |  
 |   |                |  
 |   |                |  
 |   |                |  
 |   |                |  
 |   |                |  
 |   |                |  
 |   |                |  
 |   |                |  
 |   |                |  
 |   |                |  
 |   |                |  
 |   |                |  
 |  Lii  N  Li   N    |  
 |   |             Li |  
 |   | Li       Li    |  
 |   |Li LLi  Li LiN  |  
 |   |                |  
 |Li |   N Li    N    |  
 |  Li      Li        |  
 |   | Li  N    Li N  |  
 |   |Li Li   Li LLi  |  
 |   |    Li          |  
 |   |   N Li    N Li |  
 |  Li      Li        |  
 |N  .-Li--N----Li----.  
 |  / Li Li   Li Li  /   
 Li/      Li        /    
 |/i       Li      /     
 *----------------*      

Positions:
   0 Li     1.753389    5.061850    0.000000    ( 0.0000,  0.0000,  0.0000)
   1 Li     0.000000    2.024928    0.000000    ( 0.0000,  0.0000,  0.0000)
   2 Li     3.506756    2.024928    0.000000    ( 0.0000,  0.0000,  0.0000)
   3 Li     5.260124    5.061850    0.000000    ( 0.0000,  0.0000,  0.0000)
   4 Li     1.753389    3.037256    1.946139    ( 0.0000,  0.0000,  0.0000)
   5 Li     0.000000    0.000334    1.946139    ( 0.0000,  0.0000,  0.0000)
   6 Li     3.506756    0.000334    1.946139    ( 0.0000,  0.0000,  0.0000)
   7 Li     5.260124    3.037256    1.946139    ( 0.0000,  0.0000,  0.0000)
   8 Li     1.753367    1.012631    1.946139    ( 0.0000,  0.0000,  0.0000)
   9 Li     0.000000    4.049553    1.946139    ( 0.0000,  0.0000,  0.0000)
  10 Li     3.506735    4.049553    1.946139    ( 0.0000,  0.0000,  0.0000)
  11 Li     5.260103    1.012631    1.946139    ( 0.0000,  0.0000,  0.0000)
  12 Li     1.733014    5.084499    3.976982    ( 0.0000,  0.0000,  0.0000)
  13 Li    -0.001924    2.030951    3.952769    ( 0.0000,  0.0000,  0.0000)
  14 Li     3.508932    2.034735    3.888814    ( 0.0000,  0.0000,  0.0000)
  15 Li     5.280716    5.084224    3.976574    ( 0.0000,  0.0000,  0.0000)
  16 Li     1.754983    3.085009    5.838262    ( 0.0000,  0.0000,  0.0000)
  17 Li    -0.000060    0.036874    6.126317    ( 0.0000,  0.0000,  0.0000)
  18 Li     3.507624    0.057508    5.888622    ( 0.0000,  0.0000,  0.0000)
  19 Li     5.258858    3.084589    5.839178    ( 0.0000,  0.0000,  0.0000)
  20 Li     1.750894    1.051290    5.867477    ( 0.0000,  0.0000,  0.0000)
  21 Li     0.000069    4.117921    6.047564    ( 0.0000,  0.0000,  0.0000)
  22 Li     3.507498    4.080003    5.890971    ( 0.0000,  0.0000,  0.0000)
  23 Li     5.263090    1.051556    5.868217    ( 0.0000,  0.0000,  0.0000)
  24 Li     1.936780    5.102230    7.996385    ( 0.0000,  0.0000,  0.0000)
  25 Li     0.004280    2.170799    7.846284    ( 0.0000,  0.0000,  0.0000)
  26 Li     3.501496    2.088327    7.777385    ( 0.0000,  0.0000,  0.0000)
  27 Li     5.076985    5.098767    8.006209    ( 0.0000,  0.0000,  0.0000)
  28 Li     1.724389    3.163334    9.690200    ( 0.0000,  0.0000,  0.0000)
  29 Li     0.002816   -0.028665    9.638045    ( 0.0000,  0.0000,  0.0000)
  30 Li     3.510003    0.149642   10.556857    ( 0.0000,  0.0000,  0.0000)
  31 Li     5.290726    3.162174    9.687034    ( 0.0000,  0.0000,  0.0000)
  32 Li     1.818375    1.076077    9.728934    ( 0.0000,  0.0000,  0.0000)
  33 Li     0.002356    4.119954   10.585153    ( 0.0000,  0.0000,  0.0000)
  34 Li     3.507635    4.037448   10.442331    ( 0.0000,  0.0000,  0.0000)
  35 Li     5.192991    1.076226    9.708466    ( 0.0000,  0.0000,  0.0000)
  36 N      1.753389    5.061910    1.929076    ( 0.0000,  0.0000,  0.0000)
  37 N      0.000000    2.024989    1.929076    ( 0.0000,  0.0000,  0.0000)
  38 N      3.506756    2.024989    1.929076    ( 0.0000,  0.0000,  0.0000)
  39 N      5.260124    5.061910    1.929076    ( 0.0000,  0.0000,  0.0000)
  40 N      1.754016    5.107561    5.962921    ( 0.0000,  0.0000,  0.0000)
  41 N     -0.000415    2.077635    5.899428    ( 0.0000,  0.0000,  0.0000)
  42 N      3.507064    2.069524    5.789775    ( 0.0000,  0.0000,  0.0000)
  43 N      5.259811    5.107340    5.968029    ( 0.0000,  0.0000,  0.0000)
  44 N      1.760415    5.155628    9.997429    ( 0.0000,  0.0000,  0.0000)
  45 N     -0.001021    2.069036    9.800274    ( 0.0000,  0.0000,  0.0000)
  46 N      3.507078    2.131188    9.716245    ( 0.0000,  0.0000,  0.0000)
  47 N      5.257157    5.157655    9.996731    ( 0.0000,  0.0000,  0.0000)
  48 Li     6.982961    1.468756   11.578114    ( 0.0000,  0.0000,  0.0000)

Unit cell:
           periodic     x           y           z      points  spacing
  1. axis:    yes    7.013470    0.000000    0.000000    40     0.1753
  2. axis:    yes    0.000000    6.073843    0.000000    32     0.1898
  3. axis:    yes    0.000000    0.000000   29.936001   160     0.1871

  Lengths:   7.013470   6.073843  29.936001
  Angles:   90.000000  90.000000  90.000000

Effective grid spacing dv^(1/3) = 0.1840

                     log10-error:    total        iterations:
           time      wfs    density  energy       fermi  poisson
iter:   1  11:57:50  -2.58         -155.107603    4             
iter:   2  11:58:01  -3.75  -2.31  -155.099775    3             
iter:   3  11:58:13  -4.56  -2.37  -155.097942    3             
iter:   4  11:58:24  -3.86  -2.46  -155.089733    3             
iter:   5  11:58:36  -5.21  -2.79  -155.090259    3             
iter:   6  11:58:47  -4.58  -2.82  -155.089069    3             
iter:   7  11:58:58  -4.74  -3.11  -155.089461    3             
iter:   8  11:59:10  -5.25  -3.00  -155.088931    3             
iter:   9  11:59:21  -5.64  -3.37  -155.088962    3             
iter:  10  11:59:32  -6.19  -3.49  -155.088965    2             
iter:  11  11:59:44  -5.90  -3.61  -155.088991    3             
iter:  12  11:59:55  -7.26  -3.74  -155.088981    2             
iter:  13  12:00:07  -7.27  -3.81  -155.088974    2             
iter:  14  12:00:18  -6.99  -3.85  -155.088966    2             
iter:  15  12:00:29  -7.60  -4.00  -155.088991    2             
iter:  16  12:00:41  -8.07  -4.04  -155.088960    2             

Converged after 16 iterations.

Dipole moment: (0.345704, -2.325447, 5.498408) |e|*Ang

Energy contributions relative to reference atoms: (reference = -25283.807400)

Kinetic:       +171.763669
Potential:     -125.466230
External:        +0.000000
XC:            -200.346355
Entropy (-ST):   -0.020543
Local:           -1.029773
--------------------------
Free energy:   -155.099232
Extrapolated:  -155.088960

Non-local vdW-DF-cx correlation energy: 15.262725
Semilocal GGA_X_LV_RPW86+LDA_C_PW energy: -1087.478116
(Not including atomic contributions)
Fermi level: -0.92709

Showing only first 2 kpts
 Kpt  Band  Eigenvalues  Occupancy
  0    46     -1.36448    0.13333
  0    47     -0.83381    0.00570
  0    48     -0.71809    0.00013
  0    49     -0.30991    0.00000

  1    46     -1.40643    0.13333
  1    47     -1.13548    0.13321
  1    48     -0.85243    0.01022
  1    49     -0.30969    0.00000


No gap

Forces in eV/Ang:
  0 Li   -0.00066   -0.00051   -0.10707
  1 Li    0.00001   -0.00021   -0.11127
  2 Li   -0.00002   -0.00031   -0.11938
  3 Li    0.00063   -0.00051   -0.10733
  4 Li   -0.00693    0.01414    0.03813
  5 Li    0.00071    0.00684    0.02357
  6 Li   -0.00067   -0.01361    0.04535
  7 Li    0.00687    0.01469    0.03431
  8 Li   -0.00466   -0.00263    0.02525
  9 Li    0.00088   -0.00342    0.03879
 10 Li   -0.00047    0.02002    0.05698
 11 Li    0.00503   -0.00322    0.02162
 12 Li   -0.06630    0.01907   -0.02462
 13 Li    0.00564   -0.00581   -0.06704
 14 Li   -0.00568    0.01178   -0.01711
 15 Li    0.06661    0.01943   -0.00669
 16 Li   -0.09802   -0.00175    0.00290
 17 Li   -0.00107    0.14983   -0.00110
 18 Li   -0.00177   -0.13453    0.06629
 19 Li    0.09738    0.00063    0.01836
 20 Li   -0.08664    0.01511   -0.01195
 21 Li   -0.00123   -0.14343   -0.01162
 22 Li   -0.00205    0.14755    0.08150
 23 Li    0.08447    0.01227    0.00423
 24 Li    0.06118   -0.00573    0.01292
 25 Li   -0.00286    0.01877    0.19854
 26 Li    0.00595   -0.01043    0.14847
 27 Li   -0.06352   -0.00807   -0.04874
 28 Li    0.00063    0.03845   -0.11421
 29 Li   -0.00575   -0.12841   -0.19976
 30 Li    0.00222   -0.08163    0.01705
 31 Li   -0.00183    0.05548   -0.10280
 32 Li    0.01386   -0.03017   -0.03962
 33 Li   -0.00740    0.17251    0.12367
 34 Li    0.00271    0.11700    0.09346
 35 Li   -0.01158   -0.04610   -0.05288
 36 N    -0.01264    0.02940    0.06883
 37 N    -0.00215    0.01175   -0.00023
 38 N     0.00216    0.01190   -0.21269
 39 N     0.01242    0.02927    0.07157
 40 N     0.16053   -0.00291   -0.01320
 41 N     0.00854   -0.00542   -0.08964
 42 N    -0.00416    0.00704    0.07105
 43 N    -0.16092   -0.00257   -0.04034
 44 N     0.01361    0.00721    0.05548
 45 N     0.00462    0.07035    0.01962
 46 N     0.00274   -0.02155   -0.12630
 47 N    -0.00724    0.00716    0.09575
 48 Li   -0.00258   -0.25758    0.13048

System changes: positions 

Initializing position-dependent things.

Density initialized from wave functions
     .----------------.  
    /|                |  
   / |                |  
  /  |                |  
 *   |                |  
 |   |                |  
 |   |                |  
 |   |                |  
 |   |                |  
 |   |                |  
 |   |                |  
 |   |                |  
 |   |                |  
 |   |                |  
 |   |                |  
 |   |                |  
 |   |                |  
 |   |                |  
 |   |                |  
 |   |                |  
 |   |                |  
 |   |                |  
 |   |                |  
 |   |                |  
 |   |                |  
 |  Lii  N  Li   N    |  
 |   |             Li |  
 |   | Li       Li    |  
 |   |Li LLi  Li LiN  |  
 |   |                |  
 |Li |   N Li    N    |  
 |  Li      Li        |  
 |   | Li  N    Li N  |  
 |   |Li Li   Li LLi  |  
 |   |    Li          |  
 |   |   N Li    N Li |  
 |  Li      Li        |  
 |N  .-Li--N----Li----.  
 |  / Li Li   Li Li  /   
 Li/      Li        /    
 |/i       Li      /     
 *----------------*      

Positions:
   0 Li     1.753389    5.061850    0.000000    ( 0.0000,  0.0000,  0.0000)
   1 Li     0.000000    2.024928    0.000000    ( 0.0000,  0.0000,  0.0000)
   2 Li     3.506756    2.024928    0.000000    ( 0.0000,  0.0000,  0.0000)
   3 Li     5.260124    5.061850    0.000000    ( 0.0000,  0.0000,  0.0000)
   4 Li     1.753389    3.037256    1.946139    ( 0.0000,  0.0000,  0.0000)
   5 Li     0.000000    0.000334    1.946139    ( 0.0000,  0.0000,  0.0000)
   6 Li     3.506756    0.000334    1.946139    ( 0.0000,  0.0000,  0.0000)
   7 Li     5.260124    3.037256    1.946139    ( 0.0000,  0.0000,  0.0000)
   8 Li     1.753367    1.012631    1.946139    ( 0.0000,  0.0000,  0.0000)
   9 Li     0.000000    4.049553    1.946139    ( 0.0000,  0.0000,  0.0000)
  10 Li     3.506735    4.049553    1.946139    ( 0.0000,  0.0000,  0.0000)
  11 Li     5.260103    1.012631    1.946139    ( 0.0000,  0.0000,  0.0000)
  12 Li     1.736671    5.078087    3.972548    ( 0.0000,  0.0000,  0.0000)
  13 Li    -0.001664    2.027895    3.939648    ( 0.0000,  0.0000,  0.0000)
  14 Li     3.508693    2.028320    3.888913    ( 0.0000,  0.0000,  0.0000)
  15 Li     5.277018    5.077726    3.974175    ( 0.0000,  0.0000,  0.0000)
  16 Li     1.758132    3.085784    5.831223    ( 0.0000,  0.0000,  0.0000)
  17 Li    -0.000269    0.036990    6.127950    ( 0.0000,  0.0000,  0.0000)
  18 Li     3.507671    0.060204    5.879676    ( 0.0000,  0.0000,  0.0000)
  19 Li     5.255649    3.084323    5.831805    ( 0.0000,  0.0000,  0.0000)
  20 Li     1.754687    1.051279    5.858128    ( 0.0000,  0.0000,  0.0000)
  21 Li     0.000000    4.121275    6.046886    ( 0.0000,  0.0000,  0.0000)
  22 Li     3.507515    4.078266    5.884509    ( 0.0000,  0.0000,  0.0000)
  23 Li     5.259276    1.052479    5.858696    ( 0.0000,  0.0000,  0.0000)
  24 Li     1.942564    5.107912    8.000236    ( 0.0000,  0.0000,  0.0000)
  25 Li     0.003842    2.180680    7.847511    ( 0.0000,  0.0000,  0.0000)
  26 Li     3.501033    2.091332    7.776590    ( 0.0000,  0.0000,  0.0000)
  27 Li     5.071476    5.103668    8.005250    ( 0.0000,  0.0000,  0.0000)
  28 Li     1.714373    3.168408    9.698490    ( 0.0000,  0.0000,  0.0000)
  29 Li     0.002587   -0.044743    9.596017    ( 0.0000,  0.0000,  0.0000)
  30 Li     3.510063    0.132671   10.547571    ( 0.0000,  0.0000,  0.0000)
  31 Li     5.300997    3.166814    9.695745    ( 0.0000,  0.0000,  0.0000)
  32 Li     1.808357    1.078541    9.751122    ( 0.0000,  0.0000,  0.0000)
  33 Li     0.002019    4.130688   10.613965    ( 0.0000,  0.0000,  0.0000)
  34 Li     3.507613    4.048197   10.448061    ( 0.0000,  0.0000,  0.0000)
  35 Li     5.203288    1.078967    9.727390    ( 0.0000,  0.0000,  0.0000)
  36 N      1.753389    5.061910    1.929076    ( 0.0000,  0.0000,  0.0000)
  37 N      0.000000    2.024989    1.929076    ( 0.0000,  0.0000,  0.0000)
  38 N      3.506756    2.024989    1.929076    ( 0.0000,  0.0000,  0.0000)
  39 N      5.260124    5.061910    1.929076    ( 0.0000,  0.0000,  0.0000)
  40 N      1.752125    5.110131    5.965851    ( 0.0000,  0.0000,  0.0000)
  41 N     -0.000911    2.080646    5.896620    ( 0.0000,  0.0000,  0.0000)
  42 N      3.507472    2.072597    5.779349    ( 0.0000,  0.0000,  0.0000)
  43 N      5.261560    5.109902    5.969858    ( 0.0000,  0.0000,  0.0000)
  44 N      1.761657    5.164368   10.013796    ( 0.0000,  0.0000,  0.0000)
  45 N     -0.001702    2.066828    9.804076    ( 0.0000,  0.0000,  0.0000)
  46 N      3.507314    2.130970    9.726211    ( 0.0000,  0.0000,  0.0000)
  47 N      5.257524    5.166274   10.017064    ( 0.0000,  0.0000,  0.0000)
  48 Li     6.982844    1.409469   11.556100    ( 0.0000,  0.0000,  0.0000)

Unit cell:
           periodic     x           y           z      points  spacing
  1. axis:    yes    7.013470    0.000000    0.000000    40     0.1753
  2. axis:    yes    0.000000    6.073843    0.000000    32     0.1898
  3. axis:    yes    0.000000    0.000000   29.936001   160     0.1871

  Lengths:   7.013470   6.073843  29.936001
  Angles:   90.000000  90.000000  90.000000

Effective grid spacing dv^(1/3) = 0.1840

                     log10-error:    total        iterations:
           time      wfs    density  energy       fermi  poisson
iter:   1  12:01:04  -2.38         -155.136589    4             
iter:   2  12:01:15  -3.51  -2.20  -155.121624    3             
iter:   3  12:01:26  -4.32  -2.29  -155.118926    3             
iter:   4  12:01:38  -3.74  -2.38  -155.107670    3             
iter:   5  12:01:49  -4.97  -2.56  -155.109114    3             
iter:   6  12:02:00  -4.49  -2.70  -155.106649    3             
iter:   7  12:02:11  -4.69  -2.75  -155.107163    3             
iter:   8  12:02:23  -5.55  -2.98  -155.106745    3             
iter:   9  12:02:34  -5.30  -3.17  -155.106642    3             
iter:  10  12:02:45  -6.36  -3.38  -155.106650    2             
iter:  11  12:02:56  -6.06  -3.44  -155.106771    2             
iter:  12  12:03:07  -6.91  -3.62  -155.106667    2             
iter:  13  12:03:19  -6.61  -3.68  -155.106739    3             
iter:  14  12:03:30  -6.81  -3.75  -155.106721    2             
iter:  15  12:03:41  -6.77  -3.78  -155.106731    2             
iter:  16  12:03:52  -7.84  -3.96  -155.106736    2             
iter:  17  12:04:04  -7.26  -4.04  -155.106702    2             

Converged after 17 iterations.

Dipole moment: (0.442702, -2.039250, 5.450116) |e|*Ang

Energy contributions relative to reference atoms: (reference = -25283.807400)

Kinetic:       +171.234535
Potential:     -125.087466
External:        +0.000000
XC:            -200.215891
Entropy (-ST):   -0.020916
Local:           -1.027422
--------------------------
Free energy:   -155.117159
Extrapolated:  -155.106702

[...]
  27 Li     4.911586    5.110819    8.061274    ( 0.0000,  0.0000,  0.0000)
  28 Li     1.710773    3.233866    9.621568    ( 0.0000,  0.0000,  0.0000)
  29 Li     0.018123   -0.307635    9.190631    ( 0.0000,  0.0000,  0.0000)
  30 Li     3.525973    0.208195   10.578533    ( 0.0000,  0.0000,  0.0000)
  31 Li     5.308937    3.239364    9.677486    ( 0.0000,  0.0000,  0.0000)
  32 Li     1.772401    1.128768    9.794996    ( 0.0000,  0.0000,  0.0000)
  33 Li     0.025412    4.049900   10.800125    ( 0.0000,  0.0000,  0.0000)
  34 Li     3.493468    4.051512   10.640123    ( 0.0000,  0.0000,  0.0000)
  35 Li     5.228562    1.131328    9.687855    ( 0.0000,  0.0000,  0.0000)
  36 N      1.753389    5.061910    1.929076    ( 0.0000,  0.0000,  0.0000)
  37 N      0.000000    2.024989    1.929076    ( 0.0000,  0.0000,  0.0000)
  38 N      3.506756    2.024989    1.929076    ( 0.0000,  0.0000,  0.0000)
  39 N      5.260124    5.061910    1.929076    ( 0.0000,  0.0000,  0.0000)
  40 N      1.768080    5.128135    6.013930    ( 0.0000,  0.0000,  0.0000)
  41 N      0.000066    2.096639    5.902993    ( 0.0000,  0.0000,  0.0000)
  42 N      3.506281    2.087637    5.806042    ( 0.0000,  0.0000,  0.0000)
  43 N      5.246361    5.126307    6.019113    ( 0.0000,  0.0000,  0.0000)
  44 N      1.726119    5.207153   10.079906    ( 0.0000,  0.0000,  0.0000)
  45 N     -0.003993    2.062081    9.796656    ( 0.0000,  0.0000,  0.0000)
  46 N      3.507618    2.200871    9.698132    ( 0.0000,  0.0000,  0.0000)
  47 N      5.319610    5.229102   10.095170    ( 0.0000,  0.0000,  0.0000)
  48 Li     6.911637    0.581165   11.219972    ( 0.0000,  0.0000,  0.0000)

Unit cell:
           periodic     x           y           z      points  spacing
  1. axis:    yes    7.013470    0.000000    0.000000    40     0.1753
  2. axis:    yes    0.000000    6.073843    0.000000    32     0.1898
  3. axis:    yes    0.000000    0.000000   29.936001   160     0.1871

  Lengths:   7.013470   6.073843  29.936001
  Angles:   90.000000  90.000000  90.000000

Effective grid spacing dv^(1/3) = 0.1840

                     log10-error:    total        iterations:
           time      wfs    density  energy       fermi  poisson
iter:   1  13:20:47  -3.57         -155.382995    4             
iter:   2  13:20:58  -4.58  -2.68  -155.380099    3             
iter:   3  13:21:09  -5.44  -2.66  -155.379588    3             
iter:   4  13:21:21  -5.28  -3.04  -155.378946    3             
iter:   5  13:21:32  -5.75  -3.01  -155.379253    3             
iter:   6  13:21:44  -5.84  -3.33  -155.378891    3             
iter:   7  13:21:55  -6.64  -3.40  -155.378938    2             
iter:   8  13:22:07  -6.53  -3.57  -155.378995    3             
iter:   9  13:22:18  -7.10  -4.04  -155.378997    2             

Converged after 9 iterations.

Dipole moment: (0.797810, -1.463590, 5.263151) |e|*Ang

Energy contributions relative to reference atoms: (reference = -25283.807400)

Kinetic:       +163.706913
Potential:     -119.570010
External:        +0.000000
XC:            -198.480073
Entropy (-ST):   -0.020437
Local:           -1.025608
--------------------------
Free energy:   -155.389215
Extrapolated:  -155.378997

Non-local vdW-DF-cx correlation energy: 15.201488
Semilocal GGA_X_LV_RPW86+LDA_C_PW energy: -1086.170914
(Not including atomic contributions)
Fermi level: -0.97803

Showing only first 2 kpts
 Kpt  Band  Eigenvalues  Occupancy
  0    46     -1.44529    0.13333
  0    47     -0.88918    0.00656
  0    48     -0.76707    0.00012
  0    49     -0.40619    0.00000

  1    46     -1.44999    0.13333
  1    47     -1.16379    0.13306
  1    48     -0.90149    0.00965
  1    49     -0.38261    0.00000


No gap

Forces in eV/Ang:
  0 Li   -0.00031   -0.00085   -0.11890
  1 Li   -0.00001   -0.00056   -0.12628
  2 Li    0.00002   -0.00071   -0.13034
  3 Li    0.00026   -0.00088   -0.11855
  4 Li   -0.00070    0.01654    0.02800
  5 Li    0.00006    0.01448   -0.00588
  6 Li    0.00001   -0.01389    0.07579
  7 Li    0.00037    0.01827    0.02636
  8 Li    0.00372   -0.00174    0.02528
  9 Li   -0.00011   -0.00270    0.00543
 10 Li    0.00052    0.03191    0.07436
 11 Li   -0.00363   -0.00293    0.02307
 12 Li    0.00885    0.01155   -0.01005
 13 Li   -0.00226   -0.00094    0.01876
 14 Li    0.00187    0.00205   -0.01506
 15 Li   -0.00797    0.01166   -0.01156
 16 Li   -0.01136    0.00687   -0.02044
 17 Li    0.00121   -0.00106   -0.03047
 18 Li   -0.00052   -0.01522   -0.03310
 19 Li    0.01244    0.01253   -0.02347
 20 Li   -0.00894    0.00448    0.00622
 21 Li    0.00106    0.00407    0.01251
 22 Li   -0.00137    0.01059   -0.01846
 23 Li    0.00982   -0.00147    0.00860
 24 Li   -0.00580    0.02073    0.01882
 25 Li    0.00348   -0.02607    0.00318
 26 Li   -0.00341   -0.01273    0.01259
 27 Li    0.01092   -0.00049    0.01527
 28 Li    0.01618   -0.01266   -0.00964
 29 Li    0.00247   -0.01024    0.01212
 30 Li    0.00669    0.00015   -0.03060
 31 Li   -0.01529   -0.00722    0.01449
 32 Li    0.02006    0.00713   -0.00597
 33 Li    0.00849    0.00370    0.02359
 34 Li   -0.00143   -0.03976   -0.04626
 35 Li   -0.02361    0.00056   -0.04613
 36 N    -0.05034    0.02789    0.17665
 37 N    -0.00106    0.01376    0.02929
 38 N     0.00093    0.01751   -0.15532
 39 N     0.05023    0.02899    0.18544
 40 N     0.01692   -0.00224   -0.01271
 41 N     0.00324    0.00475   -0.02676
 42 N    -0.00223    0.00291    0.02306
 43 N    -0.01639   -0.00364   -0.00665
 44 N    -0.02039   -0.00844   -0.01346
 45 N    -0.00214   -0.00881   -0.02218
 46 N    -0.00196    0.00399   -0.02943
 47 N     0.02961    0.00072   -0.00874
 48 Li   -0.02696   -0.01478    0.00777

System changes: positions 

Initializing position-dependent things.

Density initialized from wave functions
     .----------------.  
    /|                |  
   / |                |  
  /  |                |  
 *   |                |  
 |   |                |  
 |   |                |  
 |   |                |  
 |   |                |  
 |   |                |  
 |   |                |  
 |   |                |  
 |   |                |  
 |   |                |  
 |   |                |  
 |   |                |  
 |   |                |  
 |   |                |  
 |   |                |  
 |   |                |  
 |   |                |  
 |   |                |  
 |   |                |  
 |   |                |  
 |   |                |  
 |  Li   N  Li   N    |  
 |   Li               |  
 |   | Li       LiLi  |  
 |   |Li  Li  LiLi N  |  
 |   |                |  
 |Li |   N Li    N    |  
 |  Li      Li        |  
 |N  | Li  N    Li    |  
 Li  |LiLi    Li Li   |  
 |   |    Li          |  
 |   |   N Li    N Li |  
 |  Li      Li        |  
 |N  .-Li--N----Li----.  
 |  / Li Li   Li Li  /   
 Li/      Li        /    
 |/i       Li      /     
 *----------------*      

Positions:
   0 Li     1.753389    5.061850    0.000000    ( 0.0000,  0.0000,  0.0000)
   1 Li     0.000000    2.024928    0.000000    ( 0.0000,  0.0000,  0.0000)
   2 Li     3.506756    2.024928    0.000000    ( 0.0000,  0.0000,  0.0000)
   3 Li     5.260124    5.061850    0.000000    ( 0.0000,  0.0000,  0.0000)
   4 Li     1.753389    3.037256    1.946139    ( 0.0000,  0.0000,  0.0000)
   5 Li     0.000000    0.000334    1.946139    ( 0.0000,  0.0000,  0.0000)
   6 Li     3.506756    0.000334    1.946139    ( 0.0000,  0.0000,  0.0000)
   7 Li     5.260124    3.037256    1.946139    ( 0.0000,  0.0000,  0.0000)
   8 Li     1.753367    1.012631    1.946139    ( 0.0000,  0.0000,  0.0000)
   9 Li     0.000000    4.049553    1.946139    ( 0.0000,  0.0000,  0.0000)
  10 Li     3.506735    4.049553    1.946139    ( 0.0000,  0.0000,  0.0000)
  11 Li     5.260103    1.012631    1.946139    ( 0.0000,  0.0000,  0.0000)
  12 Li     1.699514    5.090094    3.997530    ( 0.0000,  0.0000,  0.0000)
  13 Li    -0.001982    2.045772    3.946478    ( 0.0000,  0.0000,  0.0000)
  14 Li     3.508400    2.053094    3.896722    ( 0.0000,  0.0000,  0.0000)
  15 Li     5.314646    5.091007    4.000693    ( 0.0000,  0.0000,  0.0000)
  16 Li     1.745796    3.104224    5.861849    ( 0.0000,  0.0000,  0.0000)
  17 Li     0.000321    0.073742    6.157848    ( 0.0000,  0.0000,  0.0000)
  18 Li     3.508239    0.073407    5.897593    ( 0.0000,  0.0000,  0.0000)
  19 Li     5.267469    3.101974    5.867105    ( 0.0000,  0.0000,  0.0000)
  20 Li     1.745328    1.074724    5.880396    ( 0.0000,  0.0000,  0.0000)
  21 Li     0.000848    4.128372    6.132751    ( 0.0000,  0.0000,  0.0000)
  22 Li     3.507035    4.101375    5.924887    ( 0.0000,  0.0000,  0.0000)
  23 Li     5.267602    1.074854    5.894787    ( 0.0000,  0.0000,  0.0000)
  24 Li     2.123542    5.153452    8.050749    ( 0.0000,  0.0000,  0.0000)
  25 Li     0.004652    2.203462    7.874053    ( 0.0000,  0.0000,  0.0000)
  26 Li     3.495339    2.096886    7.794439    ( 0.0000,  0.0000,  0.0000)
  27 Li     4.909288    5.111469    8.061729    ( 0.0000,  0.0000,  0.0000)
  28 Li     1.712268    3.233322    9.619889    ( 0.0000,  0.0000,  0.0000)
  29 Li     0.018903   -0.312197    9.187448    ( 0.0000,  0.0000,  0.0000)
  30 Li     3.526887    0.212322   10.578359    ( 0.0000,  0.0000,  0.0000)
  31 Li     5.307723    3.239216    9.678713    ( 0.0000,  0.0000,  0.0000)
  32 Li     1.772819    1.128413    9.796740    ( 0.0000,  0.0000,  0.0000)
  33 Li     0.026821    4.045625   10.797533    ( 0.0000,  0.0000,  0.0000)
  34 Li     3.492916    4.050941   10.637852    ( 0.0000,  0.0000,  0.0000)
  35 Li     5.227472    1.130850    9.684442    ( 0.0000,  0.0000,  0.0000)
  36 N      1.753389    5.061910    1.929076    ( 0.0000,  0.0000,  0.0000)
  37 N      0.000000    2.024989    1.929076    ( 0.0000,  0.0000,  0.0000)
  38 N      3.506756    2.024989    1.929076    ( 0.0000,  0.0000,  0.0000)
  39 N      5.260124    5.061910    1.929076    ( 0.0000,  0.0000,  0.0000)
  40 N      1.769339    5.128763    6.011945    ( 0.0000,  0.0000,  0.0000)
  41 N      0.000142    2.096861    5.901631    ( 0.0000,  0.0000,  0.0000)
  42 N      3.506305    2.087644    5.805265    ( 0.0000,  0.0000,  0.0000)
  43 N      5.245204    5.126798    6.017676    ( 0.0000,  0.0000,  0.0000)
  44 N      1.724296    5.205365   10.079194    ( 0.0000,  0.0000,  0.0000)
  45 N     -0.004344    2.061956    9.796317    ( 0.0000,  0.0000,  0.0000)
  46 N      3.507573    2.199043    9.699144    ( 0.0000,  0.0000,  0.0000)
  47 N      5.322454    5.228294   10.094978    ( 0.0000,  0.0000,  0.0000)
  48 Li     6.907852    0.575602   11.216054    ( 0.0000,  0.0000,  0.0000)

Unit cell:
           periodic     x           y           z      points  spacing
  1. axis:    yes    7.013470    0.000000    0.000000    40     0.1753
  2. axis:    yes    0.000000    6.073843    0.000000    32     0.1898
  3. axis:    yes    0.000000    0.000000   29.936001   160     0.1871

  Lengths:   7.013470   6.073843  29.936001
  Angles:   90.000000  90.000000  90.000000

Effective grid spacing dv^(1/3) = 0.1840

                     log10-error:    total        iterations:
           time      wfs    density  energy       fermi  poisson
iter:   1  13:22:41  -3.91         -155.381771    3             
iter:   2  13:22:52  -4.92  -2.87  -155.380187    3             
iter:   3  13:23:04  -5.78  -2.82  -155.380119    3             
iter:   4  13:23:15  -5.41  -3.21  -155.379737    3             
iter:   5  13:23:27  -6.11  -3.17  -155.379833    3             
iter:   6  13:23:38  -6.31  -3.48  -155.379839    3             
iter:   7  13:23:50  -6.76  -3.79  -155.379891    2             
iter:   8  13:24:01  -7.07  -3.88  -155.379895    2             
iter:   9  13:24:13  -7.11  -4.05  -155.379884    2             

Converged after 9 iterations.

Dipole moment: (0.829646, -1.497137, 5.264012) |e|*Ang

Energy contributions relative to reference atoms: (reference = -25283.807400)

Kinetic:       +163.731809
Potential:     -119.585088
External:        +0.000000
XC:            -198.491462
Entropy (-ST):   -0.020415
Local:           -1.024935
--------------------------
Free energy:   -155.390091
Extrapolated:  -155.379884

Non-local vdW-DF-cx correlation energy: 15.201248
Semilocal GGA_X_LV_RPW86+LDA_C_PW energy: -1086.180151
(Not including atomic contributions)
Fermi level: -0.97990

Showing only first 2 kpts
 Kpt  Band  Eigenvalues  Occupancy
  0    46     -1.44824    0.13333
  0    47     -0.89176    0.00671
  0    48     -0.76832    0.00012
  0    49     -0.40788    0.00000

  1    46     -1.45241    0.13333
  1    47     -1.16599    0.13306
  1    48     -0.90265    0.00944
  1    49     -0.38429    0.00000


No gap

Forces in eV/Ang:
  0 Li   -0.00024   -0.00086   -0.11897
  1 Li   -0.00001   -0.00058   -0.12610
  2 Li    0.00003   -0.00072   -0.13070
  3 Li    0.00019   -0.00089   -0.11866
  4 Li   -0.00069    0.01619    0.02819
  5 Li    0.00010    0.01454   -0.00576
  6 Li   -0.00001   -0.01432    0.07588
  7 Li    0.00037    0.01804    0.02626
  8 Li    0.00339   -0.00188    0.02580
  9 Li   -0.00008   -0.00302    0.00506
 10 Li    0.00051    0.03151    0.07485
 11 Li   -0.00328   -0.00318    0.02328
 12 Li    0.01049    0.01494   -0.01288
 13 Li   -0.00185   -0.00047    0.00414
 14 Li    0.00143    0.00332   -0.01193
 15 Li   -0.00960    0.01514   -0.01390
 16 Li   -0.00060    0.00930   -0.02140
 17 Li    0.00126   -0.01525   -0.03007
 18 Li   -0.00079   -0.00818   -0.03796
 19 Li    0.00255    0.01435   -0.02358
 20 Li    0.00092   -0.00093    0.00539
 21 Li    0.00126    0.01787    0.01354
 22 Li   -0.00183    0.00209   -0.01705
 23 Li    0.00060   -0.00660    0.00913
 24 Li   -0.01370    0.01797    0.01593
 25 Li    0.00321   -0.03010    0.02449
 26 Li   -0.00339   -0.00991    0.00265
 27 Li    0.01853   -0.00416    0.00967
 28 Li    0.00947   -0.01587   -0.01365
 29 Li    0.00193   -0.00422    0.00848
 30 Li    0.00762   -0.02117   -0.02240
 31 Li   -0.00821   -0.01294    0.01191
 32 Li    0.00109    0.00288   -0.00626
 33 Li    0.00786    0.00731    0.03080
 34 Li   -0.00271   -0.02804   -0.03739
 35 Li   -0.00426   -0.00181   -0.04563
 36 N    -0.05037    0.02739    0.17324
 37 N    -0.00125    0.01393    0.02945
 38 N     0.00110    0.01725   -0.16028
 39 N     0.05027    0.02851    0.18245
 40 N     0.00028   -0.00330    0.00063
 41 N     0.00252    0.00743   -0.01783
 42 N    -0.00207    0.00755    0.02920
 43 N    -0.00011   -0.00443    0.00444
 44 N    -0.00043   -0.00141   -0.01656
 45 N    -0.00106   -0.00209   -0.03053
 46 N    -0.00190    0.00164   -0.03158
 47 N     0.01210    0.00958   -0.00904
 48 Li   -0.02795   -0.01524    0.00816

Timing:                                      incl.     excl.
-------------------------------------------------------------------
Density initialized from wave functions:    66.573    66.572   1.0% |
 Symmetrize density:                         0.001     0.001   0.0% |
Forces:                                    283.965   283.965   4.3% |-|
Hamiltonian:                                41.016     0.182   0.0% |
 Atomic:                                     3.338     1.953   0.0% |
  XC Correction:                             1.385     1.385   0.0% |
 Calculate atomic Hamiltonians:             25.119    25.119   0.4% |
 Communicate:                                0.002     0.002   0.0% |
 Initialize Hamiltonian:                     0.001     0.001   0.0% |
 Poisson:                                    0.116     0.116   0.0% |
 XC 3D grid:                                12.259     3.785   0.1% |
  van der Waals:                             8.474     0.163   0.0% |
   libvdwxc nonlocal:                        5.703     5.703   0.1% |
   redistribute:                             1.504     1.504   0.0% |
   semilocal:                                1.104     1.104   0.0% |
LCAO initialization:                         6.767     0.083   0.0% |
 LCAO eigensolver:                           1.818     0.000   0.0% |
  Calculate projections:                     0.006     0.006   0.0% |
  DenseAtomicCorrection:                     0.012     0.012   0.0% |
  Distribute overlap matrix:                 0.001     0.001   0.0% |
  Orbital Layouts:                           0.034     0.034   0.0% |
  Potential matrix:                          1.761     1.761   0.0% |
  Sum over cells:                            0.003     0.003   0.0% |
 LCAO to grid:                               3.398     3.398   0.1% |
 Set positions (LCAO WFS):                   1.467     0.392   0.0% |
  Basic WFS set positions:                   0.002     0.002   0.0% |
  Basis functions set positions:             0.000     0.000   0.0% |
  P tci:                                     0.588     0.588   0.0% |
  ST tci:                                    0.211     0.211   0.0% |
  mktci:                                     0.274     0.274   0.0% |
PWDescriptor:                                0.348     0.348   0.0% |
Redistribute:                                0.082     0.082   0.0% |
SCF-cycle:                                6166.076  2579.839  38.8% |---------------|
 Davidson:                                2542.108  1295.910  19.5% |-------|
  Apply H:                                 102.117    99.310   1.5% ||
   HMM T:                                    2.807     2.807   0.0% |
  Subspace diag:                           285.940     0.095   0.0% |
   calc_h_matrix:                          163.668    58.988   0.9% |
    Apply H:                               104.680   101.568   1.5% ||
     HMM T:                                  3.112     3.112   0.0% |
   diagonalize:                              1.266     1.266   0.0% |
   rotate_psi:                             120.910   120.910   1.8% ||
  calc. matrices:                          604.184   402.525   6.1% |-|
   Apply H:                                201.659   196.043   3.0% ||
    HMM T:                                   5.616     5.616   0.1% |
  diagonalize:                              11.793    11.793   0.2% |
  rotate_psi:                              242.164   242.164   3.6% ||
 Density:                                  466.080     0.012   0.0% |
  Atomic density matrices:                   3.482     3.482   0.1% |
  Mix:                                     346.479   346.479   5.2% |-|
  Multipole moments:                         0.506     0.506   0.0% |
  Pseudo density:                          115.602   115.584   1.7% ||
   Symmetrize density:                       0.018     0.018   0.0% |
 Hamiltonian:                              551.515     2.193   0.0% |
  Atomic:                                   59.745    41.359   0.6% |
   XC Correction:                           18.386    18.386   0.3% |
  Calculate atomic Hamiltonians:           313.334   313.334   4.7% |-|
  Communicate:                               0.843     0.843   0.0% |
  Poisson:                                   1.210     1.210   0.0% |
  XC 3D grid:                              174.190    63.311   1.0% |
   van der Waals:                          110.879     2.210   0.0% |
    libvdwxc nonlocal:                      75.396    75.396   1.1% |
    redistribute:                           18.935    18.935   0.3% |
    semilocal:                              14.339    14.339   0.2% |
 Orthonormalize:                            26.534     0.009   0.0% |
  calc_s_matrix:                             1.931     1.931   0.0% |
  inverse-cholesky:                          0.043     0.043   0.0% |
  projections:                              22.384    22.384   0.3% |
  rotate_psi_s:                              2.167     2.167   0.0% |
Set symmetry:                                0.002     0.002   0.0% |
Other:                                      76.146    76.146   1.1% |
-------------------------------------------------------------------
Total:                                              6640.975 100.0%

Date: Mon Sep  6 13:24:20 2021
