
  ___ ___ ___ _ _ _  
 |   |   |_  | | | | 
 | | | | | . | | | | 
 |__ |  _|___|_____|  20.1.0
 |___|_|             

User:   jngwng01@n716021
Date:   Mon Sep  6 10:49:13 2021
Arch:   x86_64
Pid:    27255
Python: 3.8.5
gpaw:   /uls/7/gpaw-20.1.0/lib/python3.8/site-packages/gpaw-20.1.0-py3.8-linux-x86_64.egg/gpaw
_gpaw:  /uls/7/gpaw-20.1.0/lib/python3.8/site-packages/gpaw-20.1.0-py3.8-linux-x86_64.egg/
        _gpaw.cpython-38-x86_64-linux-gnu.so
ase:    /uls/7/gpaw-20.1.0/lib/python3.8/site-packages/ase-3.20.1-py3.8.egg/ase (version 3.20.1)
numpy:  /uls/7/gpaw-20.1.0/lib/python3.8/site-packages/numpy (version 1.19.2)
scipy:  /uls/7/gpaw-20.1.0/lib/python3.8/site-packages/scipy-1.5.2-py3.8-linux-x86_64.egg/scipy (version 1.5.2)
libxc:  4.3.4
units:  Angstrom and eV
cores: 32
OMP_NUM_THREADS: 1

Input parameters:
  convergence: {eigenstates: 1e-08}
  kpts: [5 6 1]
  mode: {ecut: 500.0,
         gammacentered: False,
         name: pw}
  occupations: {name: fermi-dirac,
                width: 0.03}
  random: True
  xc: {backend: libvdwxc,
       libvdwxc_name: vdW-DF-cx,
       name: vdW-DF-cx,
       semilocal_xc: GGA_X_LV_RPW86+LDA_C_PW,
       setup_name: PBE,
       vdwcoef: 1.0}

System changes: positions, numbers, cell, pbc, initial_charges, initial_magmoms 

Initialize ...

Li-setup:
  name: Lithium
  id: 830b4218f175192f93f959cfc0aad614
  Z: 3
  valence: 1
  core: 2
  charge: 0.0
  file: /uls/7/gpaw-20.1.0/setups/gpaw-setups-0.9.20000/Li.PBE.gz
  compensation charges: gauss, rc=0.33, lmax=2
  cutoffs: 1.91(filt), 2.55(core),
  valence states:
                energy  radius
    2s(1.00)    -2.874   1.058
    2p(0.00)    -1.090   1.058
    *s          24.337   1.058

  Using partial waves for Li as LCAO basis

N-setup:
  name: Nitrogen
  id: f7500608b86eaa90eef8b1d9a670dc53
  Z: 7
  valence: 5
  core: 2
  charge: 0.0
  file: /uls/7/gpaw-20.1.0/setups/gpaw-setups-0.9.20000/N.PBE.gz
  compensation charges: gauss, rc=0.18, lmax=2
  cutoffs: 1.11(filt), 0.96(core),
  valence states:
                energy  radius
    2s(2.00)   -18.583   0.603
    2p(3.00)    -7.089   0.529
    *s           8.629   0.603
    *p          20.123   0.529
    *d           0.000   0.577

  Using partial waves for N as LCAO basis

Reference energy: -25283.807400

Spin-paired calculation

Occupation numbers:
  Fermi-Dirac: width=0.0300 eV

Convergence criteria:
  Maximum total energy change: 0.0005 eV / electron
  Maximum integral of absolute density change: 0.0001 electrons
  Maximum integral of absolute eigenstate change: 1e-08 eV^2
  Maximum number of iterations: 333

Symmetries present (total): 1

  ( 1  0  0)
  ( 0  1  0)
  ( 0  0  1)

30 k-points: 5 x 6 x 1 Monkhorst-Pack grid
15 k-points in the irreducible part of the Brillouin zone
       k-points in crystal coordinates                weights
   0:     0.00000000    0.08333333    0.00000000          2/30
   1:     0.00000000    0.25000000    0.00000000          2/30
   2:     0.00000000    0.41666667    0.00000000          2/30
   3:     0.20000000   -0.41666667    0.00000000          2/30
   4:     0.20000000   -0.25000000    0.00000000          2/30
   5:     0.20000000   -0.08333333    0.00000000          2/30
   6:     0.20000000    0.08333333    0.00000000          2/30
   7:     0.20000000    0.25000000    0.00000000          2/30
   8:     0.20000000    0.41666667    0.00000000          2/30
   9:     0.40000000   -0.41666667    0.00000000          2/30
          ...
  14:     0.40000000    0.41666667    0.00000000          2/30

Wave functions: Plane wave expansion
  Cutoff energy: 500.000 eV
  Number of coefficients (min, max): 32335, 32478
  Pulay-stress correction: 0.000000 eV/Ang^3 (de/decut=0.000000)
  Using FFTW library
  ScaLapack parameters: grid=1x1, blocksize=None
  Wavefunction extrapolation:
    Improved wavefunction reuse through dual PAW basis 

Eigensolver
   Davidson(niter=2, smin=None, normalize=True) 

Densities:
  Coarse grid: 40*32*160 grid
  Fine grid: 80*64*320 grid
  Total Charge: 0.000000 

Density mixing:
  Method: separate
  Backend: pulay
  Linear mixing parameter: 0.05
  Mixing with 5 old densities
  Damping of long wave oscillations: 50 

Hamiltonian:
  XC and Coulomb potentials evaluated on a 80*64*320 grid
  Using the vdW-DF-cx Exchange-Correlation functional
 

XC parameters: vdW-DF-cx with libvdwxc
  Mode: mpi with 32 cores
  Semilocal: GGA_X_LV_RPW86+LDA_C_PW with 2 nearest neighbor stencil
  Local blocksize: 3 x 64 x 320
  PAW datasets: PBE

Memory estimate:
  Process memory now: 214.21 MiB
  Calculator: 106.40 MiB
    Density: 24.81 MiB
      Arrays: 10.16 MiB
      Localized functions: 10.74 MiB
      Mixer: 3.91 MiB
    Hamiltonian: 6.90 MiB
      Arrays: 6.64 MiB
      XC: 0.00 MiB
      Poisson: 0.00 MiB
      vbar: 0.26 MiB
    Wavefunctions: 74.69 MiB
      Arrays psit_nG: 31.22 MiB
      Eigensolver: 34.31 MiB
      Projections: 0.08 MiB
      Projectors: 1.05 MiB
      PW-descriptor: 8.03 MiB

Total number of cores used: 32
Parallelization over k-points: 8
Domain decomposition: 1 x 1 x 4
                      2 x 2 x 8 (xc only)

Number of atoms: 49
Number of atomic orbitals: 196
Number of bands in calculation: 63
Number of valence electrons: 97
Bands to converge: occupied

... initialized

Initializing position-dependent things.

Density initialized from atomic densities
Creating initial wave functions:
  63 bands from LCAO basis set

     .----------------.  
    /|                |  
   / |                |  
  /  |                |  
 *   |                |  
 |   |                |  
 |   |                |  
 |   |                |  
 |   |                |  
 |   |                |  
 |   |                |  
 |   |                |  
 |   |                |  
 |   |                |  
 |   |                |  
 |   |                |  
 |   |                |  
 |   |                |  
 |   |                |  
 |   |                |  
 |   |                |  
 |   |                |  
 |   |                |  
 |   |                |  
 |   |                |  
 |   |   N       N Li |  
 |   |      Li       Li  
 |   | Li       Li N  |  
 |   |Li LLi  Li Li   |  
 |   |            Li  |  
 |Li |   N Li    N    |  
 |  Li      Li        |  
 |   | Li  N    Li N  |  
 |   |Li Li   Li Li   |  
 Li  |    Li          |  
 |Li |   N Li    N    |  
 |  Li      Li        |  
 |N  .-Li--N----Li----.  
 |  / Li Li   Li Li  /   
 Li/      Li        /    
 |/i       Li      /     
 *----------------*      

Positions:
   0 Li     1.753389    5.061850    0.000000    ( 0.0000,  0.0000,  0.0000)
   1 Li     0.000000    2.024928    0.000000    ( 0.0000,  0.0000,  0.0000)
   2 Li     3.506756    2.024928    0.000000    ( 0.0000,  0.0000,  0.0000)
   3 Li     5.260124    5.061850    0.000000    ( 0.0000,  0.0000,  0.0000)
   4 Li     1.753389    3.037256    1.946139    ( 0.0000,  0.0000,  0.0000)
   5 Li     0.000000    0.000334    1.946139    ( 0.0000,  0.0000,  0.0000)
   6 Li     3.506756    0.000334    1.946139    ( 0.0000,  0.0000,  0.0000)
   7 Li     5.260124    3.037256    1.946139    ( 0.0000,  0.0000,  0.0000)
   8 Li     1.753367    1.012631    1.946139    ( 0.0000,  0.0000,  0.0000)
   9 Li     0.000000    4.049553    1.946139    ( 0.0000,  0.0000,  0.0000)
  10 Li     3.506735    4.049553    1.946139    ( 0.0000,  0.0000,  0.0000)
  11 Li     5.260103    1.012631    1.946139    ( 0.0000,  0.0000,  0.0000)
  12 Li     1.753389    5.061850    3.920419    ( 0.0000,  0.0000,  0.0000)
  13 Li     0.000000    2.024928    3.920419    ( 0.0000,  0.0000,  0.0000)
  14 Li     3.506756    2.024928    3.920419    ( 0.0000,  0.0000,  0.0000)
  15 Li     5.260124    5.061850    3.920419    ( 0.0000,  0.0000,  0.0000)
  16 Li     1.751737    3.069785    5.870150    ( 0.0000,  0.0000,  0.0000)
  17 Li     0.000294    0.031711    5.948220    ( 0.0000,  0.0000,  0.0000)
  18 Li     3.506682    0.028516    5.818424    ( 0.0000,  0.0000,  0.0000)
  19 Li     5.261695    3.069396    5.869653    ( 0.0000,  0.0000,  0.0000)
  20 Li     1.751467    1.040446    5.883350    ( 0.0000,  0.0000,  0.0000)
  21 Li     0.000338    4.084142    5.918684    ( 0.0000,  0.0000,  0.0000)
  22 Li     3.506682    4.081560    5.827934    ( 0.0000,  0.0000,  0.0000)
  23 Li     5.262021    1.040844    5.883239    ( 0.0000,  0.0000,  0.0000)
  24 Li     1.839887    5.090230    7.931086    ( 0.0000,  0.0000,  0.0000)
  25 Li     0.003210    2.117832    7.886381    ( 0.0000,  0.0000,  0.0000)
  26 Li     3.502282    2.073142    7.789942    ( 0.0000,  0.0000,  0.0000)
  27 Li     5.177281    5.089757    7.926004    ( 0.0000,  0.0000,  0.0000)
  28 Li     1.771460    3.112938    9.736356    ( 0.0000,  0.0000,  0.0000)
  29 Li    -0.000766    0.037815    9.918382    ( 0.0000,  0.0000,  0.0000)
  30 Li     3.509131    0.089140   10.468278    ( 0.0000,  0.0000,  0.0000)
  31 Li     5.241802    3.113652    9.719941    ( 0.0000,  0.0000,  0.0000)
  32 Li     1.795211    1.029556    9.694254    ( 0.0000,  0.0000,  0.0000)
  33 Li    -0.001681    4.108815   10.173661    ( 0.0000,  0.0000,  0.0000)
  34 Li     3.508467    4.097079   10.332235    ( 0.0000,  0.0000,  0.0000)
  35 Li     5.217308    1.028357    9.677826    ( 0.0000,  0.0000,  0.0000)
  36 N      1.753389    5.061910    1.929076    ( 0.0000,  0.0000,  0.0000)
  37 N      0.000000    2.024989    1.929076    ( 0.0000,  0.0000,  0.0000)
  38 N      3.506756    2.024989    1.929076    ( 0.0000,  0.0000,  0.0000)
  39 N      5.260124    5.061910    1.929076    ( 0.0000,  0.0000,  0.0000)
  40 N      1.765542    5.095352    5.870720    ( 0.0000,  0.0000,  0.0000)
  41 N     -0.000013    2.062416    5.868279    ( 0.0000,  0.0000,  0.0000)
  42 N      3.506594    2.059835    5.827200    ( 0.0000,  0.0000,  0.0000)
  43 N      5.248368    5.095360    5.867005    ( 0.0000,  0.0000,  0.0000)
  44 N      1.778030    5.122802    9.922102    ( 0.0000,  0.0000,  0.0000)
  45 N     -0.001494    2.076803    9.829482    ( 0.0000,  0.0000,  0.0000)
  46 N      3.507291    2.084076    9.721342    ( 0.0000,  0.0000,  0.0000)
  47 N      5.236827    5.123024    9.929176    ( 0.0000,  0.0000,  0.0000)
  48 Li     6.993764    1.912974   11.704422    ( 0.0000,  0.0000,  0.0000)

Unit cell:
           periodic     x           y           z      points  spacing
  1. axis:    yes    7.013470    0.000000    0.000000    40     0.1753
  2. axis:    yes    0.000000    6.073843    0.000000    32     0.1898
  3. axis:    yes    0.000000    0.000000   29.936001   160     0.1871

  Lengths:   7.013470   6.073843  29.936001
  Angles:   90.000000  90.000000  90.000000

Effective grid spacing dv^(1/3) = 0.1840

                     log10-error:    total        iterations:
           time      wfs    density  energy       fermi  poisson
iter:   1  10:49:42                -186.949872    3             
iter:   2  10:49:53  -0.99  -0.50  -176.800878    32            
iter:   3  10:50:04  -0.38  -0.56  -180.491465    33            
iter:   4  10:50:15  -1.95  -0.59  -167.255397    33            
iter:   5  10:50:26  -2.86  -0.67  -166.529324    4             
iter:   6  10:50:37  -1.28  -0.67  -163.636477    5             
iter:   7  10:50:47  -1.14  -0.75  -158.260804    32            
iter:   8  10:50:58  -1.53  -0.88  -156.117565    31            
iter:   9  10:51:09  -2.42  -0.95  -156.372444    4             
iter:  10  10:51:20  -2.34  -0.93  -156.994500    3             
iter:  11  10:51:31  -0.95  -0.91  -160.865155    6             
iter:  12  10:51:41  -1.90  -1.02  -156.871777    4             
iter:  13  10:51:52  -2.69  -1.21  -156.528160    5             
iter:  14  10:52:03  -2.23  -1.25  -155.085377    30            
iter:  15  10:52:14  -3.18  -1.49  -154.956192    3             
iter:  16  10:52:25  -3.70  -1.60  -154.949895    4             
iter:  17  10:52:36  -2.63  -1.63  -155.617061    24            
iter:  18  10:52:46  -2.75  -1.56  -154.981099    5             
iter:  19  10:52:57  -3.84  -1.72  -154.944287    3             
iter:  20  10:53:08  -3.28  -1.76  -155.004076    4             
iter:  21  10:53:19  -3.52  -1.60  -154.895619    31            
iter:  22  10:53:29  -4.04  -1.86  -154.864481    4             
iter:  23  10:53:40  -3.76  -1.96  -154.870957    4             
iter:  24  10:53:51  -3.65  -1.87  -154.845377    4             
iter:  25  10:54:02  -3.76  -2.15  -154.847984    2             
iter:  26  10:54:13  -3.91  -2.22  -154.851001    3             
iter:  27  10:54:24  -4.38  -2.26  -154.852972    3             
iter:  28  10:54:34  -5.24  -2.35  -154.850315    3             
iter:  29  10:54:45  -4.45  -2.41  -154.848268    3             
iter:  30  10:54:56  -4.71  -2.45  -154.852723    4             
iter:  31  10:55:07  -4.33  -2.44  -154.849415    3             
iter:  32  10:55:18  -5.12  -2.65  -154.849495    3             
iter:  33  10:55:29  -5.65  -3.03  -154.849974    3             
iter:  34  10:55:39  -5.86  -3.30  -154.849728    2             
iter:  35  10:55:50  -5.90  -3.35  -154.850052    2             
iter:  36  10:56:01  -6.90  -3.55  -154.850114    2             
iter:  37  10:56:12  -6.84  -3.52  -154.850032    2             
iter:  38  10:56:23  -7.30  -3.60  -154.849984    2             
iter:  39  10:56:33  -6.82  -3.76  -154.849991    2             
iter:  40  10:56:44  -7.38  -3.92  -154.849962    2             
iter:  41  10:56:55  -7.77  -3.98  -154.849985    2             
iter:  42  10:57:06  -7.73  -4.02  -154.849973    1             
iter:  43  10:57:17  -7.77  -4.16  -154.849973    2             
iter:  44  10:57:27  -8.02  -4.25  -154.849947    2             

Converged after 44 iterations.

Dipole moment: (0.306484, -2.547140, 5.648564) |e|*Ang

Energy contributions relative to reference atoms: (reference = -25283.807400)

Kinetic:       +177.076959
Potential:     -129.040763
External:        +0.000000
XC:            -201.821651
Entropy (-ST):   -0.021047
Local:           -1.053969
--------------------------
Free energy:   -154.860471
Extrapolated:  -154.849947

Non-local vdW-DF-cx correlation energy: 15.295087
Semilocal GGA_X_LV_RPW86+LDA_C_PW energy: -1088.555275
(Not including atomic contributions)
Fermi level: -0.94747

Showing only first 2 kpts
 Kpt  Band  Eigenvalues  Occupancy
  0    46     -1.27722    0.13333
  0    47     -0.83815    0.00340
  0    48     -0.75359    0.00021
  0    49     -0.29131    0.00000

  1    46     -1.33031    0.13333
  1    47     -1.12998    0.13303
  1    48     -0.89329    0.01882
  1    49     -0.31392    0.00000


No gap

Forces in eV/Ang:
  0 Li    0.00024    0.00004   -0.10773
  1 Li    0.00000    0.00003   -0.10730
  2 Li   -0.00000   -0.00001   -0.10679
  3 Li   -0.00026    0.00003   -0.10767
  4 Li    0.00311   -0.00002    0.02845
  5 Li   -0.00011    0.00210    0.02768
  6 Li    0.00009    0.00367    0.02745
  7 Li   -0.00336    0.00026    0.02847
  8 Li    0.00355   -0.00014    0.02850
  9 Li   -0.00001   -0.00291    0.02692
 10 Li    0.00036   -0.00430    0.02890
 11 Li   -0.00336   -0.00035    0.02856
 12 Li   -0.07388    0.03462    0.07466
 13 Li    0.00004    0.00729    0.08763
 14 Li   -0.00016    0.02642   -0.14265
 15 Li    0.07413    0.03460    0.06111
 16 Li    0.01726    0.00380    0.00121
 17 Li   -0.00055   -0.02624    0.00635
 18 Li    0.00100    0.05206    0.10533
 19 Li   -0.01674    0.00482    0.00259
 20 Li    0.01351    0.01415    0.00909
 21 Li   -0.00107    0.05241   -0.00833
 22 Li    0.00076   -0.03122    0.10005
 23 Li   -0.01377    0.01308    0.00995
 24 Li    0.09916   -0.01280   -0.01674
 25 Li    0.00643   -0.00454   -0.19104
 26 Li   -0.00101   -0.00533    0.12078
 27 Li   -0.10368   -0.01189    0.01625
 28 Li    0.10828   -0.02007   -0.05234
 29 Li    0.00723   -0.06675   -0.00998
 30 Li   -0.00051    0.24571    0.06386
 31 Li   -0.11146   -0.02023   -0.03191
 32 Li    0.16260    0.07634   -0.04218
 33 Li    0.00672    0.05702    0.14121
 34 Li    0.00000   -0.23235    0.03933
 35 Li   -0.16564    0.07810   -0.02555
 36 N    -0.00003    0.01600   -0.11188
 37 N     0.00021    0.01658   -0.11807
 38 N    -0.00014    0.01477   -0.14077
 39 N    -0.00025    0.01586   -0.11277
 40 N    -0.09317   -0.01110    0.08814
 41 N     0.00199   -0.00755    0.13653
 42 N    -0.00107   -0.01744   -0.01765
 43 N     0.09346   -0.01087    0.11363
 44 N    -0.17458   -0.01871   -0.09395
 45 N     0.00363   -0.01046    0.13276
 46 N    -0.00199    0.00981   -0.08581
 47 N     0.17215   -0.01724   -0.17130
 48 Li   -0.00909   -0.08324   -0.00047

System changes: positions 

Initializing position-dependent things.

Density initialized from wave functions
     .----------------.  
    /|                |  
   / |                |  
  /  |                |  
 *   |                |  
 |   |                |  
 |   |                |  
 |   |                |  
 |   |                |  
 |   |                |  
 |   |                |  
 |   |                |  
 |   |                |  
 |   |                |  
 |   |                |  
 |   |                |  
 |   |                |  
 |   |                |  
 |   |                |  
 |   |                |  
 |   |                |  
 |   |                |  
 |   |                |  
 |   |                |  
 |   |                |  
 |   |   N       N Li |  
 |   |      Li       Li  
 |   | Li       Li N  |  
 |   |Li LLi  Li Li   |  
 |   |            Li  |  
 |Li |   N Li    N    |  
 |  Li      Li        |  
 |N  | Li  N    Li    |  
 |   |Li Li   Li Li   |  
 Li  |    Li          |  
 |Li |   N Li    N    |  
 |  Li      Li        |  
 |N  .-Li--N----Li----.  
 |  / Li Li   Li Li  /   
 Li/      Li        /    
 |/i       Li      /     
 *----------------*      

Positions:
   0 Li     1.753389    5.061850    0.000000    ( 0.0000,  0.0000,  0.0000)
   1 Li     0.000000    2.024928    0.000000    ( 0.0000,  0.0000,  0.0000)
   2 Li     3.506756    2.024928    0.000000    ( 0.0000,  0.0000,  0.0000)
   3 Li     5.260124    5.061850    0.000000    ( 0.0000,  0.0000,  0.0000)
   4 Li     1.753389    3.037256    1.946139    ( 0.0000,  0.0000,  0.0000)
   5 Li     0.000000    0.000334    1.946139    ( 0.0000,  0.0000,  0.0000)
   6 Li     3.506756    0.000334    1.946139    ( 0.0000,  0.0000,  0.0000)
   7 Li     5.260124    3.037256    1.946139    ( 0.0000,  0.0000,  0.0000)
   8 Li     1.753367    1.012631    1.946139    ( 0.0000,  0.0000,  0.0000)
   9 Li     0.000000    4.049553    1.946139    ( 0.0000,  0.0000,  0.0000)
  10 Li     3.506735    4.049553    1.946139    ( 0.0000,  0.0000,  0.0000)
  11 Li     5.260103    1.012631    1.946139    ( 0.0000,  0.0000,  0.0000)
  12 Li     1.752333    5.062344    3.921485    ( 0.0000,  0.0000,  0.0000)
  13 Li     0.000001    2.025032    3.921670    ( 0.0000,  0.0000,  0.0000)
  14 Li     3.506754    2.025306    3.918381    ( 0.0000,  0.0000,  0.0000)
  15 Li     5.261182    5.062344    3.921292    ( 0.0000,  0.0000,  0.0000)
  16 Li     1.751983    3.069840    5.870167    ( 0.0000,  0.0000,  0.0000)
  17 Li     0.000286    0.031336    5.948311    ( 0.0000,  0.0000,  0.0000)
  18 Li     3.506696    0.029260    5.819928    ( 0.0000,  0.0000,  0.0000)
  19 Li     5.261456    3.069465    5.869690    ( 0.0000,  0.0000,  0.0000)
  20 Li     1.751660    1.040648    5.883480    ( 0.0000,  0.0000,  0.0000)
  21 Li     0.000322    4.084891    5.918565    ( 0.0000,  0.0000,  0.0000)
  22 Li     3.506692    4.081114    5.829363    ( 0.0000,  0.0000,  0.0000)
  23 Li     5.261824    1.041031    5.883381    ( 0.0000,  0.0000,  0.0000)
  24 Li     1.841304    5.090048    7.930847    ( 0.0000,  0.0000,  0.0000)
  25 Li     0.003302    2.117767    7.883652    ( 0.0000,  0.0000,  0.0000)
  26 Li     3.502268    2.073066    7.791667    ( 0.0000,  0.0000,  0.0000)
  27 Li     5.175799    5.089587    7.926236    ( 0.0000,  0.0000,  0.0000)
  28 Li     1.773007    3.112651    9.735608    ( 0.0000,  0.0000,  0.0000)
  29 Li    -0.000662    0.036861    9.918239    ( 0.0000,  0.0000,  0.0000)
  30 Li     3.509123    0.092650   10.469190    ( 0.0000,  0.0000,  0.0000)
  31 Li     5.240209    3.113363    9.719485    ( 0.0000,  0.0000,  0.0000)
  32 Li     1.797534    1.030647    9.693651    ( 0.0000,  0.0000,  0.0000)
  33 Li    -0.001585    4.109630   10.175678    ( 0.0000,  0.0000,  0.0000)
  34 Li     3.508467    4.093759   10.332797    ( 0.0000,  0.0000,  0.0000)
  35 Li     5.214941    1.029473    9.677461    ( 0.0000,  0.0000,  0.0000)
  36 N      1.753389    5.061910    1.929076    ( 0.0000,  0.0000,  0.0000)
  37 N      0.000000    2.024989    1.929076    ( 0.0000,  0.0000,  0.0000)
  38 N      3.506756    2.024989    1.929076    ( 0.0000,  0.0000,  0.0000)
  39 N      5.260124    5.061910    1.929076    ( 0.0000,  0.0000,  0.0000)
  40 N      1.764211    5.095193    5.871979    ( 0.0000,  0.0000,  0.0000)
  41 N      0.000015    2.062308    5.870230    ( 0.0000,  0.0000,  0.0000)
  42 N      3.506579    2.059586    5.826948    ( 0.0000,  0.0000,  0.0000)
  43 N      5.249703    5.095205    5.868628    ( 0.0000,  0.0000,  0.0000)
  44 N      1.775536    5.122534    9.920759    ( 0.0000,  0.0000,  0.0000)
  45 N     -0.001442    2.076654    9.831378    ( 0.0000,  0.0000,  0.0000)
  46 N      3.507263    2.084216    9.720116    ( 0.0000,  0.0000,  0.0000)
  47 N      5.239287    5.122777    9.926728    ( 0.0000,  0.0000,  0.0000)
  48 Li     6.993634    1.911785   11.704415    ( 0.0000,  0.0000,  0.0000)

Unit cell:
           periodic     x           y           z      points  spacing
  1. axis:    yes    7.013470    0.000000    0.000000    40     0.1753
  2. axis:    yes    0.000000    6.073843    0.000000    32     0.1898
  3. axis:    yes    0.000000    0.000000   29.936001   160     0.1871

  Lengths:   7.013470   6.073843  29.936001
  Angles:   90.000000  90.000000  90.000000

Effective grid spacing dv^(1/3) = 0.1840

                     log10-error:    total        iterations:
           time      wfs    density  energy       fermi  poisson
iter:   1  10:57:50  -4.23         -154.857535    3             
iter:   2  10:58:01  -5.17  -2.86  -154.859732    3             
iter:   3  10:58:12  -6.27  -2.92  -154.858410    3             
iter:   4  10:58:23  -5.15  -3.11  -154.857275    3             
iter:   5  10:58:34  -6.34  -3.02  -154.857867    3             
iter:   6  10:58:45  -6.11  -3.55  -154.857221    3             
iter:   7  10:58:56  -5.99  -2.98  -154.857976    3             
iter:   8  10:59:07  -6.50  -3.75  -154.857880    2             
iter:   9  10:59:18  -7.74  -3.83  -154.857840    2             
iter:  10  10:59:29  -6.64  -3.89  -154.857796    2             
iter:  11  10:59:40  -7.68  -4.07  -154.857843    2             
iter:  12  10:59:51  -8.70  -4.34  -154.857851    2             

Converged after 12 iterations.

Dipole moment: (0.299209, -2.566411, 5.646061) |e|*Ang

Energy contributions relative to reference atoms: (reference = -25283.807400)

Kinetic:       +177.099389
Potential:     -129.093793
External:        +0.000000
XC:            -201.816317
Entropy (-ST):   -0.020949
Local:           -1.036656
--------------------------
Free energy:   -154.868326
Extrapolated:  -154.857851

Non-local vdW-DF-cx correlation energy: 15.294645
Semilocal GGA_X_LV_RPW86+LDA_C_PW energy: -1088.555218
(Not including atomic contributions)
Fermi level: -0.94749

Showing only first 2 kpts
 Kpt  Band  Eigenvalues  Occupancy
  0    46     -1.28062    0.13333
  0    47     -0.83863    0.00345
  0    48     -0.75236    0.00020
  0    49     -0.29173    0.00000

  1    46     -1.32798    0.13333
  1    47     -1.13156    0.13305
  1    48     -0.89208    0.01816
  1    49     -0.31402    0.00000


No gap

Forces in eV/Ang:
  0 Li    0.00023    0.00002   -0.10784
  1 Li    0.00001    0.00001   -0.10743
  2 Li   -0.00000   -0.00005   -0.10771
  3 Li   -0.00025    0.00001   -0.10785
  4 Li    0.00265    0.00049    0.02837
  5 Li   -0.00005    0.00245    0.02714
  6 Li    0.00004    0.00284    0.02807
  7 Li   -0.00290    0.00070    0.02832
  8 Li    0.00317   -0.00036    0.02820
  9 Li    0.00005   -0.00317    0.02672
 10 Li    0.00031   -0.00322    0.02962
 11 Li   -0.00299   -0.00050    0.02820
 12 Li   -0.07008    0.03389    0.07020
 13 Li    0.00007    0.00737    0.08281
 14 Li   -0.00018    0.02585   -0.12206
 15 Li    0.07030    0.03391    0.05986
 16 Li    0.01285    0.00358    0.00202
 17 Li   -0.00062   -0.01935    0.01255
 18 Li    0.00101    0.04146    0.10192
 19 Li   -0.01233    0.00447    0.00388
 20 Li    0.00961    0.01220    0.00995
 21 Li   -0.00107    0.04256   -0.00240
 22 Li    0.00083   -0.02302    0.09672
 23 Li   -0.00974    0.01128    0.01131
 24 Li    0.09237   -0.01221   -0.01419
 25 Li    0.00575   -0.00435   -0.15320
 26 Li   -0.00074   -0.00488    0.09699
 27 Li   -0.09670   -0.01138    0.01362
 28 Li    0.08470   -0.01377   -0.05375
 29 Li    0.00637   -0.04517   -0.01771
 30 Li   -0.00030    0.21093    0.06368
 31 Li   -0.08718   -0.01404   -0.03467
 32 Li    0.13556    0.06286   -0.04391
 33 Li    0.00601    0.03822    0.13805
 34 Li    0.00018   -0.19595    0.04134
 35 Li   -0.13783    0.06467   -0.02864
 36 N    -0.00111    0.01629   -0.10812
 37 N     0.00016    0.01650   -0.11284
 38 N    -0.00010    0.01488   -0.14669
 39 N     0.00082    0.01616   -0.10942
 40 N    -0.07225   -0.00856    0.08181
 41 N     0.00182   -0.00574    0.11644
 42 N    -0.00096   -0.01426   -0.01674
 43 N     0.07243   -0.00842    0.10336
 44 N    -0.13507   -0.01448   -0.07746
 45 N     0.00321   -0.00720    0.10277
 46 N    -0.00200    0.01090   -0.06692
 47 N     0.13271   -0.01321   -0.14482
 48 Li   -0.00865   -0.08440    0.00664

System changes: positions 

Initializing position-dependent things.

Density initialized from wave functions
     .----------------.  
    /|                |  
   / |                |  
  /  |                |  
 *   |                |  
 |   |                |  
 |   |                |  
 |   |                |  
 |   |                |  
 |   |                |  
 |   |                |  
 |   |                |  
 |   |                |  
 |   |                |  
 |   |                |  
 |   |                |  
 |   |                |  
 |   |                |  
 |   |                |  
 |   |                |  
 |   |                |  
 |   |                |  
 |   |                |  
 |   |                |  
 |   |                |  
 |   |   N       N Li |  
 |   |      Li       Li  
 |   | Li       Li N  |  
 |   |Li LLi  Li Li   |  
 |   |            Li  |  
 |Li |   N Li    N    |  
 |  Li      Li        |  
 |N  | Li  N    Li    |  
 |   |Li Li   Li Li   |  
 Li  |    Li          |  
 |Li |   N Li    N    |  
 |  Li      Li        |  
 |N  .-Li--N----Li----.  
 |  / Li Li   Li Li  /   
 Li/      Li        /    
 |/i       Li      /     
 *----------------*      

Positions:
   0 Li     1.753389    5.061850    0.000000    ( 0.0000,  0.0000,  0.0000)
   1 Li     0.000000    2.024928    0.000000    ( 0.0000,  0.0000,  0.0000)
   2 Li     3.506756    2.024928    0.000000    ( 0.0000,  0.0000,  0.0000)
   3 Li     5.260124    5.061850    0.000000    ( 0.0000,  0.0000,  0.0000)
   4 Li     1.753389    3.037256    1.946139    ( 0.0000,  0.0000,  0.0000)
   5 Li     0.000000    0.000334    1.946139    ( 0.0000,  0.0000,  0.0000)
   6 Li     3.506756    0.000334    1.946139    ( 0.0000,  0.0000,  0.0000)
   7 Li     5.260124    3.037256    1.946139    ( 0.0000,  0.0000,  0.0000)
   8 Li     1.753367    1.012631    1.946139    ( 0.0000,  0.0000,  0.0000)
   9 Li     0.000000    4.049553    1.946139    ( 0.0000,  0.0000,  0.0000)
  10 Li     3.506735    4.049553    1.946139    ( 0.0000,  0.0000,  0.0000)
  11 Li     5.260103    1.012631    1.946139    ( 0.0000,  0.0000,  0.0000)
  12 Li     1.745440    5.065674    3.928392    ( 0.0000,  0.0000,  0.0000)
  13 Li     0.000007    2.025755    3.929817    ( 0.0000,  0.0000,  0.0000)
  14 Li     3.506736    2.027845    3.906328    ( 0.0000,  0.0000,  0.0000)
  15 Li     5.268097    5.065675    3.927172    ( 0.0000,  0.0000,  0.0000)
  16 Li     1.753260    3.070192    5.870363    ( 0.0000,  0.0000,  0.0000)
  17 Li     0.000226    0.029413    5.949522    ( 0.0000,  0.0000,  0.0000)
  18 Li     3.506795    0.033366    5.829945    ( 0.0000,  0.0000,  0.0000)
  19 Li     5.260230    3.069905    5.870066    ( 0.0000,  0.0000,  0.0000)
  20 Li     1.752616    1.041852    5.884454    ( 0.0000,  0.0000,  0.0000)
  21 Li     0.000218    4.089103    5.918309    ( 0.0000,  0.0000,  0.0000)
  22 Li     3.506774    4.078826    5.838869    ( 0.0000,  0.0000,  0.0000)
  23 Li     5.260855    1.042144    5.884486    ( 0.0000,  0.0000,  0.0000)
  24 Li     1.850395    5.088847    7.929445    ( 0.0000,  0.0000,  0.0000)
  25 Li     0.003869    2.117340    7.868483    ( 0.0000,  0.0000,  0.0000)
  26 Li     3.502194    2.072585    7.801270    ( 0.0000,  0.0000,  0.0000)
  27 Li     5.166283    5.088468    7.927581    ( 0.0000,  0.0000,  0.0000)
  28 Li     1.781402    3.111278    9.730336    ( 0.0000,  0.0000,  0.0000)
  29 Li    -0.000034    0.032353    9.916527    ( 0.0000,  0.0000,  0.0000)
  30 Li     3.509094    0.113475   10.475442    ( 0.0000,  0.0000,  0.0000)
  31 Li     5.231568    3.111963    9.716091    ( 0.0000,  0.0000,  0.0000)
  32 Li     1.810934    1.036863    9.689347    ( 0.0000,  0.0000,  0.0000)
  33 Li    -0.000993    4.113446   10.189241    ( 0.0000,  0.0000,  0.0000)
  34 Li     3.508484    4.074399   10.336848    ( 0.0000,  0.0000,  0.0000)
  35 Li     5.201316    1.035867    9.674660    ( 0.0000,  0.0000,  0.0000)
  36 N      1.753389    5.061910    1.929076    ( 0.0000,  0.0000,  0.0000)
  37 N      0.000000    2.024989    1.929076    ( 0.0000,  0.0000,  0.0000)
  38 N      3.506756    2.024989    1.929076    ( 0.0000,  0.0000,  0.0000)
  39 N      5.260124    5.061910    1.929076    ( 0.0000,  0.0000,  0.0000)
  40 N      1.757047    5.094344    5.880032    ( 0.0000,  0.0000,  0.0000)
  41 N      0.000195    2.061738    5.881729    ( 0.0000,  0.0000,  0.0000)
  42 N      3.506484    2.058176    5.825301    ( 0.0000,  0.0000,  0.0000)
  43 N      5.256885    5.094369    5.878810    ( 0.0000,  0.0000,  0.0000)
  44 N      1.762141    5.121099    9.913099    ( 0.0000,  0.0000,  0.0000)
  45 N     -0.001125    2.075936    9.841569    ( 0.0000,  0.0000,  0.0000)
  46 N      3.507067    2.085282    9.713482    ( 0.0000,  0.0000,  0.0000)
  47 N      5.252449    5.121467    9.912421    ( 0.0000,  0.0000,  0.0000)
  48 Li     6.992784    1.903503   11.705042    ( 0.0000,  0.0000,  0.0000)

Unit cell:
           periodic     x           y           z      points  spacing
  1. axis:    yes    7.013470    0.000000    0.000000    40     0.1753
  2. axis:    yes    0.000000    6.073843    0.000000    32     0.1898
  3. axis:    yes    0.000000    0.000000   29.936001   160     0.1871

  Lengths:   7.013470   6.073843  29.936001
  Angles:   90.000000  90.000000  90.000000

Effective grid spacing dv^(1/3) = 0.1840

                     log10-error:    total        iterations:
           time      wfs    density  energy       fermi  poisson
iter:   1  11:00:13  -2.70         -154.945127    4             
iter:   2  11:00:24  -3.29  -1.89  -155.021917    5             
iter:   3  11:00:35  -4.12  -1.79  -154.894310    4             
iter:   4  11:00:46  -4.53  -2.31  -154.889269    3             
iter:   5  11:00:57  -4.08  -2.42  -154.881778    3             
iter:   6  11:01:08  -4.67  -2.71  -154.882657    3             
iter:   7  11:01:19  -4.97  -2.88  -154.881866    3             
iter:   8  11:01:30  -5.45  -3.01  -154.880782    3             
iter:   9  11:01:41  -5.06  -2.81  -154.882235    3             
iter:  10  11:01:52  -6.53  -3.13  -154.881638    2             
iter:  11  11:02:03  -5.59  -3.28  -154.880871    3             
iter:  12  11:02:14  -6.40  -3.20  -154.881213    3             
iter:  13  11:02:25  -6.11  -3.66  -154.881291    2             
iter:  14  11:02:36  -6.85  -3.71  -154.881407    2             
iter:  15  11:02:47  -6.96  -3.76  -154.881308    2             
iter:  16  11:02:58  -7.65  -4.08  -154.881269    2             
iter:  17  11:03:09  -7.94  -4.22  -154.881265    2             
iter:  18  11:03:20  -7.78  -4.31  -154.881262    2             
iter:  19  11:03:31  -8.83  -4.54  -154.881268    2             

Converged after 19 iterations.

Dipole moment: (0.255353, -2.693347, 5.629099) |e|*Ang

Energy contributions relative to reference atoms: (reference = -25283.807400)

Kinetic:       +177.106632
Potential:     -129.122504
External:        +0.000000
XC:            -201.820448
Entropy (-ST):   -0.020615
Local:           -1.034640
--------------------------
Free energy:   -154.891575
Extrapolated:  -154.881268

Non-local vdW-DF-cx correlation energy: 15.294422
Semilocal GGA_X_LV_RPW86+LDA_C_PW energy: -1088.558968
(Not including atomic contributions)
Fermi level: -0.94406

Showing only first 2 kpts
 Kpt  Band  Eigenvalues  Occupancy
  0    46     -1.29884    0.13333
  0    47     -0.83793    0.00377
  0    48     -0.74144    0.00016
  0    49     -0.29237    0.00000

  1    46     -1.31156    0.13333
  1    47     -1.13742    0.13312
  1    48     -0.88073    0.01441
  1    49     -0.31259    0.00000


No gap

Forces in eV/Ang:
  0 Li   -0.00025   -0.00007   -0.10764
  1 Li    0.00004   -0.00003   -0.10737
  2 Li   -0.00003   -0.00010   -0.11022
  3 Li    0.00022   -0.00008   -0.10784
  4 Li   -0.00116    0.00396    0.02902
  5 Li    0.00033    0.00449    0.02397
  6 Li   -0.00032   -0.00263    0.03313
  7 Li    0.00090    0.00374    0.02864
  8 Li   -0.00004   -0.00189    0.02728
  9 Li    0.00042   -0.00452    0.02610
 10 Li   -0.00005    0.00402    0.03524
 11 Li    0.00021   -0.00158    0.02693
 12 Li   -0.04435    0.02872    0.04192
 13 Li    0.00029    0.00763    0.05078
 14 Li   -0.00033    0.02122   -0.00700
 15 Li    0.04441    0.02884    0.04832
 16 Li   -0.00913    0.00198    0.00695
 17 Li   -0.00106    0.01476    0.05462
 18 Li    0.00108   -0.01117    0.07722
 19 Li    0.00963    0.00238    0.01186
 20 Li   -0.00942    0.00163    0.01508
 21 Li   -0.00104   -0.00879    0.03843
 22 Li    0.00126    0.01599    0.07253
 23 Li    0.01003    0.00126    0.01951
 24 Li    0.04492   -0.00859    0.00188
 25 Li    0.00143   -0.00089    0.05069
 26 Li    0.00117   -0.00177   -0.03619
 27 Li   -0.04833   -0.00824   -0.00181
 28 Li   -0.04795    0.02106   -0.05832
 29 Li    0.00119    0.06452   -0.06016
 30 Li   -0.00034    0.01896    0.06686
 31 Li    0.04938    0.02014   -0.04868
 32 Li   -0.01885   -0.01222   -0.05002
 33 Li    0.00169   -0.05718    0.11935
 34 Li   -0.00005    0.00364    0.05580
 35 Li    0.02089   -0.01030   -0.04432
 36 N    -0.00557    0.01824   -0.08651
 37 N    -0.00011    0.01603   -0.08494
 38 N     0.00014    0.01570   -0.17631
 39 N     0.00526    0.01816   -0.08965
 40 N     0.03549    0.00546    0.03482
 41 N     0.00068    0.00403   -0.00863
 42 N    -0.00024    0.00442   -0.01624
 43 N    -0.03598    0.00519    0.03643
 44 N     0.06051    0.00656   -0.00708
 45 N     0.00084    0.00635   -0.04076
 46 N    -0.00090    0.01633    0.02174
 47 N    -0.06174    0.00619   -0.01915
 48 Li   -0.00524   -0.09127    0.03341

System changes: positions 

Initializing position-dependent things.

Density initialized from wave functions
     .----------------.  
    /|                |  
   / |                |  
  /  |                |  
 *   |                |  
 |   |                |  
 |   |                |  
 |   |                |  
 |   |                |  
 |   |                |  
 |   |                |  
 |   |                |  
 |   |                |  
 |   |                |  
 |   |                |  
 |   |                |  
 |   |                |  
 |   |                |  
 |   |                |  
 |   |                |  
 |   |                |  
 |   |                |  
 |   |                |  
 |   |                |  
 |   |                |  
 |   |   N       N Li |  
 |   |      Li       Li  
 |   | Li       Li N  |  
 |   |Li LLi  Li Li   |  
 Li  |                |  
 |Li |   N Li    N    |  
 |  Li      Li        |  
 |N  | Li  N    Li    |  
 |   |Li Li   Li Li   |  
 Li  |    Li          |  
 |Li |   N Li    N    |  
 |  Li      Li        |  
 |N  .-Li--N----Li----.  
 |  / Li Li   Li Li  /   
 Li/      Li        /    
 |/i       Li      /     
 *----------------*      

Positions:
   0 Li     1.753389    5.061850    0.000000    ( 0.0000,  0.0000,  0.0000)
   1 Li     0.000000    2.024928    0.000000    ( 0.0000,  0.0000,  0.0000)
   2 Li     3.506756    2.024928    0.000000    ( 0.0000,  0.0000,  0.0000)
   3 Li     5.260124    5.061850    0.000000    ( 0.0000,  0.0000,  0.0000)
   4 Li     1.753389    3.037256    1.946139    ( 0.0000,  0.0000,  0.0000)
   5 Li     0.000000    0.000334    1.946139    ( 0.0000,  0.0000,  0.0000)
   6 Li     3.506756    0.000334    1.946139    ( 0.0000,  0.0000,  0.0000)
   7 Li     5.260124    3.037256    1.946139    ( 0.0000,  0.0000,  0.0000)
   8 Li     1.753367    1.012631    1.946139    ( 0.0000,  0.0000,  0.0000)
   9 Li     0.000000    4.049553    1.946139    ( 0.0000,  0.0000,  0.0000)
  10 Li     3.506735    4.049553    1.946139    ( 0.0000,  0.0000,  0.0000)
  11 Li     5.260103    1.012631    1.946139    ( 0.0000,  0.0000,  0.0000)
  12 Li     1.743950    5.066504    3.929849    ( 0.0000,  0.0000,  0.0000)
  13 Li     0.000013    2.025956    3.931554    ( 0.0000,  0.0000,  0.0000)
  14 Li     3.506729    2.028467    3.904776    ( 0.0000,  0.0000,  0.0000)
  15 Li     5.269591    5.066507    3.928601    ( 0.0000,  0.0000,  0.0000)
  16 Li     1.753278    3.070264    5.870491    ( 0.0000,  0.0000,  0.0000)
  17 Li     0.000203    0.029401    5.950491    ( 0.0000,  0.0000,  0.0000)
  18 Li     3.506823    0.033695    5.832303    ( 0.0000,  0.0000,  0.0000)
  19 Li     5.260226    3.069993    5.870289    ( 0.0000,  0.0000,  0.0000)
  20 Li     1.752592    1.042022    5.884797    ( 0.0000,  0.0000,  0.0000)
  21 Li     0.000190    4.089479    5.918859    ( 0.0000,  0.0000,  0.0000)
  22 Li     3.506802    4.078787    5.841096    ( 0.0000,  0.0000,  0.0000)
  23 Li     5.260887    1.042297    5.884912    ( 0.0000,  0.0000,  0.0000)
  24 Li     1.852155    5.088574    7.929306    ( 0.0000,  0.0000,  0.0000)
  25 Li     0.003958    2.117277    7.867418    ( 0.0000,  0.0000,  0.0000)
  26 Li     3.502203    2.072501    7.801880    ( 0.0000,  0.0000,  0.0000)
  27 Li     5.164420    5.088210    7.927715    ( 0.0000,  0.0000,  0.0000)
  28 Li     1.781690    3.111429    9.728830    ( 0.0000,  0.0000,  0.0000)
  29 Li     0.000059    0.032773    9.915419    ( 0.0000,  0.0000,  0.0000)
  30 Li     3.509084    0.116261   10.477198    ( 0.0000,  0.0000,  0.0000)
  31 Li     5.231272    3.112097    9.714954    ( 0.0000,  0.0000,  0.0000)
  32 Li     1.812258    1.037427    9.688081    ( 0.0000,  0.0000,  0.0000)
  33 Li    -0.000897    4.113052   10.192660    ( 0.0000,  0.0000,  0.0000)
  34 Li     3.508485    4.072126   10.338173    ( 0.0000,  0.0000,  0.0000)
  35 Li     5.199995    1.036480    9.673660    ( 0.0000,  0.0000,  0.0000)
  36 N      1.753389    5.061910    1.929076    ( 0.0000,  0.0000,  0.0000)
  37 N      0.000000    2.024989    1.929076    ( 0.0000,  0.0000,  0.0000)
  38 N      3.506756    2.024989    1.929076    ( 0.0000,  0.0000,  0.0000)
  39 N      5.260124    5.061910    1.929076    ( 0.0000,  0.0000,  0.0000)
  40 N      1.756714    5.094324    5.881515    ( 0.0000,  0.0000,  0.0000)
  41 N      0.000227    2.061730    5.882973    ( 0.0000,  0.0000,  0.0000)
  42 N      3.506469    2.058073    5.824857    ( 0.0000,  0.0000,  0.0000)
  43 N      5.257213    5.094347    5.880574    ( 0.0000,  0.0000,  0.0000)
  44 N      1.761427    5.121024    9.912060    ( 0.0000,  0.0000,  0.0000)
  45 N     -0.001075    2.075943    9.842195    ( 0.0000,  0.0000,  0.0000)
  46 N      3.507030    2.085654    9.713002    ( 0.0000,  0.0000,  0.0000)
  47 N      5.253118    5.121401    9.910403    ( 0.0000,  0.0000,  0.0000)
  48 Li     6.992604    1.901139   11.705612    ( 0.0000,  0.0000,  0.0000)

Unit cell:
           periodic     x           y           z      points  spacing
  1. axis:    yes    7.013470    0.000000    0.000000    40     0.1753
  2. axis:    yes    0.000000    6.073843    0.000000    32     0.1898
  3. axis:    yes    0.000000    0.000000   29.936001   160     0.1871

  Lengths:   7.013470   6.073843  29.936001
  Angles:   90.000000  90.000000  90.000000

Effective grid spacing dv^(1/3) = 0.1840

                     log10-error:    total        iterations:
           time      wfs    density  energy       fermi  poisson
iter:   1  11:03:54  -4.40         -154.882904    3             
iter:   2  11:04:05  -5.17  -2.85  -154.885306    3             
iter:   3  11:04:16  -6.28  -2.91  -154.883791    3             
iter:   4  11:04:27  -5.26  -3.15  -154.882660    3             
iter:   5  11:04:38  -6.28  -3.01  -154.883289    3             
iter:   6  11:04:49  -6.41  -3.65  -154.882679    3             
iter:   7  11:05:01  -6.13  -3.12  -154.883458    3             
iter:   8  11:05:12  -6.68  -3.66  -154.883344    2             
iter:   9  11:05:23  -7.34  -3.81  -154.883143    2             
iter:  10  11:05:34  -7.42  -3.91  -154.883188    2             
iter:  11  11:05:45  -8.20  -4.19  -154.883228    2             

Converged after 11 iterations.

Dipole moment: (0.248899, -2.718144, 5.627835) |e|*Ang

Energy contributions relative to reference atoms: (reference = -25283.807400)

Kinetic:       +177.074616
Potential:     -129.101939
External:        +0.000000
XC:            -201.809715
Entropy (-ST):   -0.020573
Local:           -1.035904
--------------------------
Free energy:   -154.893514
Extrapolated:  -154.883228

Non-local vdW-DF-cx correlation energy: 15.293959
Semilocal GGA_X_LV_RPW86+LDA_C_PW energy: -1088.550064
(Not including atomic contributions)
Fermi level: -0.94251

Showing only first 2 kpts
 Kpt  Band  Eigenvalues  Occupancy
  0    46     -1.30031    0.13333
  0    47     -0.83746    0.00390
  0    48     -0.73854    0.00015
  0    49     -0.29126    0.00000

  1    46     -1.30989    0.13333
  1    47     -1.13737    0.13313
  1    48     -0.87777    0.01381
  1    49     -0.31119    0.00000


No gap

Forces in eV/Ang:
  0 Li   -0.00017   -0.00009   -0.10734
  1 Li    0.00004   -0.00006   -0.10706
  2 Li   -0.00003   -0.00016   -0.11073
  3 Li    0.00014   -0.00010   -0.10755
  4 Li   -0.00155    0.00446    0.02925
  5 Li    0.00035    0.00502    0.02324
  6 Li   -0.00034   -0.00339    0.03433
  7 Li    0.00129    0.00421    0.02887
  8 Li   -0.00028   -0.00192    0.02716
  9 Li    0.00044   -0.00489    0.02594
 10 Li   -0.00006    0.00522    0.03657
 11 Li    0.00045   -0.00158    0.02681
 12 Li   -0.03883    0.02740    0.03519
 13 Li    0.00023    0.00751    0.03905
 14 Li   -0.00027    0.02011    0.00799
 15 Li    0.03889    0.02752    0.04284
 16 Li   -0.00938    0.00214    0.00639
 17 Li   -0.00088    0.01619    0.05978
 18 Li    0.00089   -0.01386    0.07157
 19 Li    0.00984    0.00217    0.01147
 20 Li   -0.00925    0.00064    0.01445
 21 Li   -0.00082   -0.01214    0.04353
 22 Li    0.00107    0.01750    0.06699
 23 Li    0.00989    0.00062    0.01906
 24 Li    0.03970   -0.00811    0.00510
 25 Li    0.00093    0.00021    0.06639
 26 Li    0.00138   -0.00116   -0.04619
 27 Li   -0.04300   -0.00785   -0.00266
 28 Li   -0.05600    0.02430   -0.05865
 29 Li    0.00036    0.06377   -0.06526
 30 Li   -0.00035   -0.00089    0.06636
 31 Li    0.05775    0.02346   -0.05037
 32 Li   -0.03050   -0.01908   -0.04933
 33 Li    0.00092   -0.05576    0.11718
 34 Li   -0.00013    0.02323    0.05678
 35 Li    0.03283   -0.01742   -0.04503
 36 N    -0.00750    0.01868   -0.08215
 37 N    -0.00008    0.01590   -0.07886
 38 N     0.00011    0.01577   -0.18366
 39 N     0.00718    0.01861   -0.08528
 40 N     0.03929    0.00646    0.03369
 41 N     0.00035    0.00487   -0.01317
 42 N     0.00008    0.00594   -0.01274
 43 N    -0.03981    0.00621    0.03316
 44 N     0.07139    0.01020    0.00139
 45 N     0.00043    0.00719   -0.04803
 46 N    -0.00044    0.01650    0.02713
 47 N    -0.07164    0.00980   -0.00246
 48 Li   -0.00474   -0.09224    0.02958

System changes: positions 

Initializing position-dependent things.

Density initialized from wave functions
     .----------------.  
    /|                |  
   / |                |  
  /  |                |  
 *   |                |  
 |   |                |  
 |   |                |  
 |   |                |  
 |   |                |  
 |   |                |  
 |   |                |  
 |   |                |  
 |   |                |  
 |   |                |  
 |   |                |  
 |   |                |  
 |   |                |  
 |   |                |  
 |   |                |  
 |   |                |  
 |   |                |  
 |   |                |  
 |   |                |  
 |   |                |  
 |   |                |  
 |   |   N       N Li |  
 |   |      Li       Li  
 |   | Li       Li N  |  
 |   |Li LLi  Li Li   |  
 Li  |                |  
 |Li |   N Li    N    |  
 |  Li      Li        |  
 |N  | Li  N    Li    |  
 |   |Li Li   Li Li   |  
 Li  |    Li          |  
 |Li |   N Li    N    |  
 |  Li      Li        |  
 |N  .-Li--N----Li----.  
 |  / Li Li   Li Li  /   
 Li/      Li        /    
 |/i       Li      /     
 *----------------*      

Positions:
   0 Li     1.753389    5.061850    0.000000    ( 0.0000,  0.0000,  0.0000)
   1 Li     0.000000    2.024928    0.000000    ( 0.0000,  0.0000,  0.0000)
   2 Li     3.506756    2.024928    0.000000    ( 0.0000,  0.0000,  0.0000)
   3 Li     5.260124    5.061850    0.000000    ( 0.0000,  0.0000,  0.0000)
   4 Li     1.753389    3.037256    1.946139    ( 0.0000,  0.0000,  0.0000)
   5 Li     0.000000    0.000334    1.946139    ( 0.0000,  0.0000,  0.0000)
   6 Li     3.506756    0.000334    1.946139    ( 0.0000,  0.0000,  0.0000)
   7 Li     5.260124    3.037256    1.946139    ( 0.0000,  0.0000,  0.0000)
   8 Li     1.753367    1.012631    1.946139    ( 0.0000,  0.0000,  0.0000)
   9 Li     0.000000    4.049553    1.946139    ( 0.0000,  0.0000,  0.0000)
  10 Li     3.506735    4.049553    1.946139    ( 0.0000,  0.0000,  0.0000)
  11 Li     5.260103    1.012631    1.946139    ( 0.0000,  0.0000,  0.0000)
  12 Li     1.733999    5.072377    3.939399    ( 0.0000,  0.0000,  0.0000)
  13 Li     0.000051    2.027427    3.942674    ( 0.0000,  0.0000,  0.0000)
  14 Li     3.506678    2.032847    3.896969    ( 0.0000,  0.0000,  0.0000)
  15 Li     5.279564    5.072396    3.938389    ( 0.0000,  0.0000,  0.0000)
  16 Li     1.752942    3.070771    5.871484    ( 0.0000,  0.0000,  0.0000)
  17 Li     0.000038    0.030124    5.958887    ( 0.0000,  0.0000,  0.0000)
  18 Li     3.507015    0.034820    5.848627    ( 0.0000,  0.0000,  0.0000)
  19 Li     5.260659    3.070582    5.872061    ( 0.0000,  0.0000,  0.0000)
  20 Li     1.752037    1.042967    5.887369    ( 0.0000,  0.0000,  0.0000)
  21 Li     0.000002    4.090916    5.924153    ( 0.0000,  0.0000,  0.0000)
  22 Li     3.507006    4.079417    5.856474    ( 0.0000,  0.0000,  0.0000)
  23 Li     5.261514    1.043160    5.888166    ( 0.0000,  0.0000,  0.0000)
  24 Li     1.863662    5.086686    7.928879    ( 0.0000,  0.0000,  0.0000)
  25 Li     0.004482    2.116975    7.865049    ( 0.0000,  0.0000,  0.0000)
  26 Li     3.502325    2.071999    7.802816    ( 0.0000,  0.0000,  0.0000)
  27 Li     5.152190    5.086416    7.928313    ( 0.0000,  0.0000,  0.0000)
  28 Li     1.780436    3.113511    9.717666    ( 0.0000,  0.0000,  0.0000)
  29 Li     0.000568    0.038025    9.906010    ( 0.0000,  0.0000,  0.0000)
  30 Li     3.509013    0.131154   10.490106    ( 0.0000,  0.0000,  0.0000)
  31 Li     5.232573    3.114049    9.706190    ( 0.0000,  0.0000,  0.0000)
  32 Li     1.817863    1.039463    9.678735    ( 0.0000,  0.0000,  0.0000)
  33 Li    -0.000342    4.108339   10.217174    ( 0.0000,  0.0000,  0.0000)
  34 Li     3.508476    4.061138   10.348274    ( 0.0000,  0.0000,  0.0000)
  35 Li     5.194528    1.038865    9.665945    ( 0.0000,  0.0000,  0.0000)
  36 N      1.753389    5.061910    1.929076    ( 0.0000,  0.0000,  0.0000)
  37 N      0.000000    2.024989    1.929076    ( 0.0000,  0.0000,  0.0000)
  38 N      3.506756    2.024989    1.929076    ( 0.0000,  0.0000,  0.0000)
  39 N      5.260124    5.061910    1.929076    ( 0.0000,  0.0000,  0.0000)
  40 N      1.756775    5.094544    5.891331    ( 0.0000,  0.0000,  0.0000)
  41 N      0.000408    2.061939    5.889164    ( 0.0000,  0.0000,  0.0000)
  42 N      3.506401    2.057828    5.821895    ( 0.0000,  0.0000,  0.0000)
  43 N      5.257099    5.094544    5.891870    ( 0.0000,  0.0000,  0.0000)
  44 N      1.761049    5.121197    9.906560    ( 0.0000,  0.0000,  0.0000)
  45 N     -0.000786    2.076332    9.843277    ( 0.0000,  0.0000,  0.0000)
  46 N      3.506824    2.088512    9.711721    ( 0.0000,  0.0000,  0.0000)
  47 N      5.253263    5.121605    9.899521    ( 0.0000,  0.0000,  0.0000)
  48 Li     6.991394    1.883580   11.710009    ( 0.0000,  0.0000,  0.0000)

Unit cell:
           periodic     x           y           z      points  spacing
  1. axis:    yes    7.013470    0.000000    0.000000    40     0.1753
  2. axis:    yes    0.000000    6.073843    0.000000    32     0.1898
  3. axis:    yes    0.000000    0.000000   29.936001   160     0.1871

  Lengths:   7.013470   6.073843  29.936001
  Angles:   90.000000  90.000000  90.000000

Effective grid spacing dv^(1/3) = 0.1840

                     log10-error:    total        iterations:
           time      wfs    density  energy       fermi  poisson
iter:   1  11:06:08  -2.81         -154.943211    4             
iter:   2  11:06:19  -3.37  -1.94  -154.995058    4             
iter:   3  11:06:30  -4.22  -1.84  -154.903710    4             
iter:   4  11:06:42  -4.61  -2.36  -154.899728    3             
iter:   5  11:06:53  -4.26  -2.47  -154.893985    3             
iter:   6  11:07:04  -4.74  -2.84  -154.892907    3             
iter:   7  11:07:15  -5.53  -2.94  -154.893161    3             
iter:   8  11:07:26  -5.93  -3.09  -154.892986    2             
iter:   9  11:07:37  -5.85  -3.14  -154.893226    3             
iter:  10  11:07:49  -6.24  -3.50  -154.893259    2             
iter:  11  11:08:00  -7.01  -3.61  -154.893268    2             
iter:  12  11:08:11  -6.68  -3.65  -154.893273    2             
iter:  13  11:08:22  -7.31  -3.82  -154.893206    2             
iter:  14  11:08:33  -8.27  -3.97  -154.893246    2             
iter:  15  11:08:44  -8.02  -4.02  -154.893232    2             

Converged after 15 iterations.

Dipole moment: (0.214515, -2.872640, 5.621776) |e|*Ang

Energy contributions relative to reference atoms: (reference = -25283.807400)

Kinetic:       +176.763665
Potential:     -128.896931
External:        +0.000000
XC:            -201.711234
Entropy (-ST):   -0.020380
Local:           -1.038541
--------------------------
Free energy:   -154.903422
Extrapolated:  -154.893232

Non-local vdW-DF-cx correlation energy: 15.290004
Semilocal GGA_X_LV_RPW86+LDA_C_PW energy: -1088.472624
(Not including atomic contributions)
Fermi level: -0.93018

Showing only first 2 kpts
 Kpt  Band  Eigenvalues  Occupancy
  0    46     -1.30422    0.13333
  0    47     -0.83296    0.00502
  0    48     -0.71792    0.00011
  0    49     -0.28137    0.00000

  1    46     -1.30339    0.13333
  1    47     -1.13371    0.13318
  1    48     -0.85691    0.01067
  1    49     -0.29938    0.00000


No gap

Forces in eV/Ang:
  0 Li   -0.00083   -0.00026   -0.10603
  1 Li    0.00004   -0.00020   -0.10593
  2 Li   -0.00004   -0.00035   -0.11213
  3 Li    0.00080   -0.00026   -0.10619
  4 Li   -0.00467    0.00783    0.03178
  5 Li    0.00039    0.00812    0.01747
  6 Li   -0.00036   -0.00780    0.04367
  7 Li    0.00439    0.00753    0.03151
  8 Li   -0.00232   -0.00202    0.02718
  9 Li    0.00047   -0.00679    0.02449
 10 Li   -0.00007    0.01268    0.04661
 11 Li    0.00248   -0.00164    0.02690
 12 Li   -0.00003    0.01800   -0.00569
 13 Li   -0.00016    0.00620   -0.03790
 14 Li    0.00020    0.01175    0.08063
 15 Li    0.00009    0.01807    0.00495
 16 Li   -0.00251    0.00326   -0.00073
 17 Li    0.00053    0.01227    0.09177
 18 Li   -0.00066   -0.01313    0.02872
 19 Li    0.00275    0.00125    0.00495
 20 Li   -0.00026   -0.00317    0.00658
 21 Li    0.00085   -0.01669    0.07603
 22 Li   -0.00054    0.01274    0.02468
 23 Li    0.00087   -0.00128    0.01179
 24 Li    0.00659   -0.00517    0.02589
 25 Li   -0.00214    0.01040    0.11206
 26 Li    0.00282    0.00307   -0.07048
 27 Li   -0.00903   -0.00562   -0.00110
 28 Li   -0.07011    0.03581   -0.05688
 29 Li   -0.00396    0.01279   -0.08920
 30 Li   -0.00078   -0.08469    0.05650
 31 Li    0.07306    0.03581   -0.05780
 32 Li   -0.06395   -0.04249   -0.03789
 33 Li   -0.00293   -0.00805    0.10371
 34 Li   -0.00103    0.10124    0.05463
 35 Li    0.06705   -0.04289   -0.04280
 36 N    -0.01925    0.02211   -0.05471
 37 N     0.00001    0.01513   -0.04279
 38 N    -0.00002    0.01727   -0.21201
 39 N     0.01895    0.02212   -0.05665
 40 N     0.03456    0.01234    0.01371
 41 N    -0.00101    0.00851   -0.04319
 42 N     0.00147    0.01577    0.02064
 43 N    -0.03497    0.01241    0.00171
 44 N     0.09302    0.02751    0.06510
 45 N    -0.00212    0.00799   -0.04009
 46 N     0.00246    0.01153    0.02293
 47 N    -0.08833    0.02681    0.11148
 48 Li   -0.00124   -0.09920   -0.01579

System changes: positions 

Initializing position-dependent things.

Density initialized from wave functions
     .----------------.  
    /|                |  
   / |                |  
  /  |                |  
 *   |                |  
 |   |                |  
 |   |                |  
 |   |                |  
 |   |                |  
 |   |                |  
 |   |                |  
 |   |                |  
 |   |                |  
 |   |                |  
 |   |                |  
 |   |                |  
 |   |                |  
 |   |                |  
 |   |                |  
 |   |                |  
 |   |                |  
 |   |                |  
 |   |                |  
 |   |                |  
 |   |                |  
 |   |   N       N Li |  
 |   |      Li       Li  
 |   | Li       Li N  |  
 |   |Li LLi  Li Li   |  
 Li  |                |  
 |Li |   N Li    N    |  
 |   |      Li       Li  
 |N  | Li  N    Li    |  
 |   |Li Li   Li Li   |  
 |   |    Li      Li  |  
 |Li |   N Li    N    |  
 |  Li      Li        |  
 |N  .-Li--N----Li----.  
 |  / Li Li   Li Li  /   
 Li/      Li        /    
 |/i       Li      /     
 *----------------*      

Positions:
   0 Li     1.753389    5.061850    0.000000    ( 0.0000,  0.0000,  0.0000)
   1 Li     0.000000    2.024928    0.000000    ( 0.0000,  0.0000,  0.0000)
   2 Li     3.506756    2.024928    0.000000    ( 0.0000,  0.0000,  0.0000)
   3 Li     5.260124    5.061850    0.000000    ( 0.0000,  0.0000,  0.0000)
   4 Li     1.753389    3.037256    1.946139    ( 0.0000,  0.0000,  0.0000)
   5 Li     0.000000    0.000334    1.946139    ( 0.0000,  0.0000,  0.0000)
   6 Li     3.506756    0.000334    1.946139    ( 0.0000,  0.0000,  0.0000)
   7 Li     5.260124    3.037256    1.946139    ( 0.0000,  0.0000,  0.0000)
   8 Li     1.753367    1.012631    1.946139    ( 0.0000,  0.0000,  0.0000)
   9 Li     0.000000    4.049553    1.946139    ( 0.0000,  0.0000,  0.0000)
  10 Li     3.506735    4.049553    1.946139    ( 0.0000,  0.0000,  0.0000)
  11 Li     5.260103    1.012631    1.946139    ( 0.0000,  0.0000,  0.0000)
  12 Li     1.728004    5.076335    3.945038    ( 0.0000,  0.0000,  0.0000)
  13 Li     0.000075    2.028463    3.948719    ( 0.0000,  0.0000,  0.0000)
  14 Li     3.506648    2.035757    3.894602    ( 0.0000,  0.0000,  0.0000)
  15 Li     5.285573    5.076366    3.944531    ( 0.0000,  0.0000,  0.0000)
  16 Li     1.752464    3.071128    5.872147    ( 0.0000,  0.0000,  0.0000)
  17 Li    -0.000062    0.031130    5.966219    ( 0.0000,  0.0000,  0.0000)
  18 Li     3.507125    0.034774    5.859136    ( 0.0000,  0.0000,  0.0000)
  19 Li     5.261202    3.070953    5.873345    ( 0.0000,  0.0000,  0.0000)
  20 Li     1.751490    1.043400    5.889154    ( 0.0000,  0.0000,  0.0000)
  21 Li    -0.000102    4.091019    5.929247    ( 0.0000,  0.0000,  0.0000)
  22 Li     3.507130    4.080424    5.866322    ( 0.0000,  0.0000,  0.0000)
  23 Li     5.262126    1.043577    5.890504    ( 0.0000,  0.0000,  0.0000)
  24 Li     1.870506    5.085445    7.929225    ( 0.0000,  0.0000,  0.0000)
  25 Li     0.004729    2.117009    7.867565    ( 0.0000,  0.0000,  0.0000)
  26 Li     3.502472    2.071769    7.800840    ( 0.0000,  0.0000,  0.0000)
  27 Li     5.144857    5.085221    7.928519    ( 0.0000,  0.0000,  0.0000)
  28 Li     1.777072    3.115795    9.709612    ( 0.0000,  0.0000,  0.0000)
  29 Li     0.000769    0.042669    9.898109    ( 0.0000,  0.0000,  0.0000)
  30 Li     3.508952    0.137124   10.499240    ( 0.0000,  0.0000,  0.0000)
  31 Li     5.236057    3.116243    9.699529    ( 0.0000,  0.0000,  0.0000)
  32 Li     1.818710    1.039254    9.672140    ( 0.0000,  0.0000,  0.0000)
  33 Li    -0.000084    4.104252   10.234213    ( 0.0000,  0.0000,  0.0000)
  34 Li     3.508449    4.057988   10.355720    ( 0.0000,  0.0000,  0.0000)
  35 Li     5.193866    1.038869    9.660190    ( 0.0000,  0.0000,  0.0000)
  36 N      1.753389    5.061910    1.929076    ( 0.0000,  0.0000,  0.0000)
  37 N      0.000000    2.024989    1.929076    ( 0.0000,  0.0000,  0.0000)
  38 N      3.506756    2.024989    1.929076    ( 0.0000,  0.0000,  0.0000)
  39 N      5.260124    5.061910    1.929076    ( 0.0000,  0.0000,  0.0000)
  40 N      1.758529    5.095050    5.897172    ( 0.0000,  0.0000,  0.0000)
  41 N      0.000496    2.062318    5.890896    ( 0.0000,  0.0000,  0.0000)
  42 N      3.506387    2.058153    5.820400    ( 0.0000,  0.0000,  0.0000)
  43 N      5.255297    5.095031    5.898228    ( 0.0000,  0.0000,  0.0000)
  44 N      1.764431    5.121980    9.904987    ( 0.0000,  0.0000,  0.0000)
  45 N     -0.000665    2.076848    9.841849    ( 0.0000,  0.0000,  0.0000)
  46 N      3.506747    2.090555    9.712163    ( 0.0000,  0.0000,  0.0000)
  47 N      5.249820    5.122376    9.895935    ( 0.0000,  0.0000,  0.0000)
  48 Li     6.990647    1.870725   11.712764    ( 0.0000,  0.0000,  0.0000)

Unit cell:
           periodic     x           y           z      points  spacing
  1. axis:    yes    7.013470    0.000000    0.000000    40     0.1753
  2. axis:    yes    0.000000    6.073843    0.000000    32     0.1898
  3. axis:    yes    0.000000    0.000000   29.936001   160     0.1871

  Lengths:   7.013470   6.073843  29.936001
  Angles:   90.000000  90.000000  90.000000

Effective grid spacing dv^(1/3) = 0.1840

                     log10-error:    total        iterations:
           time      wfs    density  energy       fermi  poisson
iter:   1  11:09:07  -3.21         -154.912887    3             
iter:   2  11:09:18  -3.85  -2.19  -154.920858    5             
iter:   3  11:09:29  -4.88  -2.22  -154.905202    4             
iter:   4  11:09:40  -4.37  -2.54  -154.899841    4             
iter:   5  11:09:52  -5.08  -2.65  -154.899065    3             
iter:   6  11:10:03  -5.67  -2.93  -154.899729    3             
iter:   7  11:10:14  -5.67  -3.19  -154.899471    2             
iter:   8  11:10:25  -5.86  -3.48  -154.899742    2             
iter:   9  11:10:36  -6.61  -3.41  -154.899637    2             
iter:  10  11:10:47  -6.74  -3.60  -154.899459    2             
iter:  11  11:10:58  -7.77  -3.84  -154.899468    2             
iter:  12  11:11:10  -7.04  -3.88  -154.899473    2             
iter:  13  11:11:21  -7.36  -4.03  -154.899481    2             
iter:  14  11:11:32  -8.51  -4.06  -154.899479    2             

Converged after 14 iterations.

Dipole moment: (0.201906, -2.952491, 5.618651) |e|*Ang

Energy contributions relative to reference atoms: (reference = -25283.807400)

Kinetic:       +176.474608
Potential:     -128.701851
External:        +0.000000
XC:            -201.621901
Entropy (-ST):   -0.020335
Local:           -1.040168
--------------------------
Free energy:   -154.909647
Extrapolated:  -154.899479

Non-local vdW-DF-cx correlation energy: 15.286683
Semilocal GGA_X_LV_RPW86+LDA_C_PW energy: -1088.403715
(Not including atomic contributions)
Fermi level: -0.92139

Showing only first 2 kpts
 Kpt  Band  Eigenvalues  Occupancy
  0    46     -1.30282    0.13333
  0    47     -0.82935    0.00593
  0    48     -0.70453    0.00010
  0    49     -0.27409    0.00000

  1    46     -1.30341    0.13333
  1    47     -1.12909    0.13320
  1    48     -0.84352    0.00926
  1    49     -0.29081    0.00000


No gap

Forces in eV/Ang:
  0 Li   -0.00080   -0.00038   -0.10527
  1 Li    0.00004   -0.00026   -0.10530
  2 Li   -0.00003   -0.00045   -0.11249
  3 Li    0.00077   -0.00039   -0.10533
  4 Li   -0.00600    0.00958    0.03322
  5 Li    0.00031    0.01007    0.01347
  6 Li   -0.00027   -0.00971    0.04886
  7 Li    0.00571    0.00937    0.03313
  8 Li   -0.00292   -0.00165    0.02700
  9 Li    0.00038   -0.00790    0.02337
 10 Li    0.00001    0.01664    0.05219
 11 Li    0.00308   -0.00133    0.02687
 12 Li    0.02234    0.01154   -0.02760
 13 Li   -0.00056    0.00488   -0.08361
 14 Li    0.00064    0.00621    0.10191
 15 Li   -0.02227    0.01153   -0.01957
 16 Li    0.00695    0.00454   -0.00698
 17 Li    0.00162    0.00225    0.10445
 18 Li   -0.00180   -0.00005    0.00283
 19 Li   -0.00685    0.00150   -0.00200
 20 Li    0.00976   -0.00261   -0.00014
 21 Li    0.00199   -0.00758    0.08917
 22 Li   -0.00183    0.00080   -0.00111
 23 Li   -0.00935    0.00020    0.00442
 24 Li   -0.00628   -0.00316    0.03869
 25 Li   -0.00326    0.01721    0.09002
 26 Li    0.00318    0.00548   -0.05175
 27 Li    0.00458   -0.00402    0.00899
 28 Li   -0.04595    0.03458   -0.05231
 29 Li   -0.00531   -0.05073   -0.09615
 30 Li   -0.00093   -0.09763    0.04476
 31 Li    0.04877    0.03544   -0.05777
 32 Li   -0.04702   -0.03784   -0.02562
 33 Li   -0.00394    0.04648    0.09793
 34 Li   -0.00153    0.10753    0.04685
 35 Li    0.04948   -0.03990   -0.03498
 36 N    -0.02464    0.02400   -0.03847
 37 N     0.00010    0.01434   -0.02607
 38 N    -0.00011    0.01767   -0.21720
 39 N     0.02436    0.02405   -0.03919
 40 N     0.00925    0.01030    0.01776
 41 N    -0.00183    0.00816   -0.02092
 42 N     0.00228    0.01548    0.03299
 43 N    -0.00935    0.01058    0.00411
 44 N     0.05261    0.03355    0.08440
 45 N    -0.00287    0.00457   -0.00389
 46 N     0.00410    0.00677    0.00454
 47 N    -0.04704    0.03317    0.14156
 48 Li    0.00050   -0.10349   -0.05399

System changes: positions 

Initializing position-dependent things.

Density initialized from wave functions
     .----------------.  
    /|                |  
   / |                |  
  /  |                |  
 *   |                |  
 |   |                |  
 |   |                |  
 |   |                |  
 |   |                |  
 |   |                |  
 |   |                |  
 |   |                |  
 |   |                |  
 |   |                |  
 |   |                |  
 |   |                |  
 |   |                |  
 |   |                |  
 |   |                |  
 |   |                |  
 |   |                |  
 |   |                |  
 |   |                |  
 |   |                |  
 |   |                |  
 |   |   N       N Li |  
 |  Li      Li        |  
 |   | Li       Li N  |  
 |   |Li LLi  Li Li   |  
 Li  |                |  
 |Li |   N Li    N    |  
 |   |      Li       Li  
 |N  | Li  N    Li    |  
 |   |Li Li   Li Li   |  
 |   |    Li      Li  |  
 |Li |   N Li    N    |  
 |  Li      Li        |  
 |N  .-Li--N----Li----.  
 |  / Li Li   Li Li  /   
 Li/      Li        /    
 |/i       Li      /     
 *----------------*      

Positions:
   0 Li     1.753389    5.061850    0.000000    ( 0.0000,  0.0000,  0.0000)
   1 Li     0.000000    2.024928    0.000000    ( 0.0000,  0.0000,  0.0000)
   2 Li     3.506756    2.024928    0.000000    ( 0.0000,  0.0000,  0.0000)
   3 Li     5.260124    5.061850    0.000000    ( 0.0000,  0.0000,  0.0000)
   4 Li     1.753389    3.037256    1.946139    ( 0.0000,  0.0000,  0.0000)
   5 Li     0.000000    0.000334    1.946139    ( 0.0000,  0.0000,  0.0000)
   6 Li     3.506756    0.000334    1.946139    ( 0.0000,  0.0000,  0.0000)
   7 Li     5.260124    3.037256    1.946139    ( 0.0000,  0.0000,  0.0000)
   8 Li     1.753367    1.012631    1.946139    ( 0.0000,  0.0000,  0.0000)
   9 Li     0.000000    4.049553    1.946139    ( 0.0000,  0.0000,  0.0000)
  10 Li     3.506735    4.049553    1.946139    ( 0.0000,  0.0000,  0.0000)
  11 Li     5.260103    1.012631    1.946139    ( 0.0000,  0.0000,  0.0000)
  12 Li     1.719982    5.082330    3.952436    ( 0.0000,  0.0000,  0.0000)
  13 Li     0.000097    2.030086    3.955353    ( 0.0000,  0.0000,  0.0000)
  14 Li     3.506619    2.040106    3.894201    ( 0.0000,  0.0000,  0.0000)
  15 Li     5.293613    5.082380    3.952935    ( 0.0000,  0.0000,  0.0000)
  16 Li     1.751811    3.071746    5.872969    ( 0.0000,  0.0000,  0.0000)
  17 Li    -0.000171    0.032836    5.979662    ( 0.0000,  0.0000,  0.0000)
  18 Li     3.507244    0.034429    5.874327    ( 0.0000,  0.0000,  0.0000)
  19 Li     5.261952    3.071522    5.875204    ( 0.0000,  0.0000,  0.0000)
  20 Li     1.750818    1.043919    5.891776    ( 0.0000,  0.0000,  0.0000)
  21 Li    -0.000206    4.090717    5.939057    ( 0.0000,  0.0000,  0.0000)
  22 Li     3.507268    4.082120    5.880456    ( 0.0000,  0.0000,  0.0000)
  23 Li     5.262905    1.044137    5.894055    ( 0.0000,  0.0000,  0.0000)
  24 Li     1.880017    5.083593    7.930773    ( 0.0000,  0.0000,  0.0000)
  25 Li     0.004985    2.117506    7.874438    ( 0.0000,  0.0000,  0.0000)
  26 Li     3.502772    2.071588    7.796047    ( 0.0000,  0.0000,  0.0000)
  27 Li     5.134605    5.083411    7.929015    ( 0.0000,  0.0000,  0.0000)
  28 Li     1.770370    3.120127    9.696636    ( 0.0000,  0.0000,  0.0000)
  29 Li     0.000910    0.048779    9.884062    ( 0.0000,  0.0000,  0.0000)
  30 Li     3.508840    0.142427   10.513577    ( 0.0000,  0.0000,  0.0000)
  31 Li     5.243024    3.120463    9.688389    ( 0.0000,  0.0000,  0.0000)
  32 Li     1.818007    1.037672    9.661932    ( 0.0000,  0.0000,  0.0000)
  33 Li     0.000181    4.098885   10.261256    ( 0.0000,  0.0000,  0.0000)
  34 Li     3.508370    4.057060   10.367725    ( 0.0000,  0.0000,  0.0000)
  35 Li     5.194920    1.037547    9.650918    ( 0.0000,  0.0000,  0.0000)
  36 N      1.753389    5.061910    1.929076    ( 0.0000,  0.0000,  0.0000)
  37 N      0.000000    2.024989    1.929076    ( 0.0000,  0.0000,  0.0000)
  38 N      3.506756    2.024989    1.929076    ( 0.0000,  0.0000,  0.0000)
  39 N      5.260124    5.061910    1.929076    ( 0.0000,  0.0000,  0.0000)
  40 N      1.761945    5.096089    5.905828    ( 0.0000,  0.0000,  0.0000)
  41 N      0.000574    2.063116    5.892249    ( 0.0000,  0.0000,  0.0000)
  42 N      3.506424    2.059085    5.818915    ( 0.0000,  0.0000,  0.0000)
  43 N      5.251807    5.096048    5.907214    ( 0.0000,  0.0000,  0.0000)
  44 N      1.771605    5.124019    9.905071    ( 0.0000,  0.0000,  0.0000)
  45 N     -0.000566    2.077771    9.838900    ( 0.0000,  0.0000,  0.0000)
  46 N      3.506738    2.093708    9.713411    ( 0.0000,  0.0000,  0.0000)
  47 N      5.242665    5.124379    9.894662    ( 0.0000,  0.0000,  0.0000)
  48 Li     6.989595    1.849466   11.715602    ( 0.0000,  0.0000,  0.0000)

Unit cell:
           periodic     x           y           z      points  spacing
  1. axis:    yes    7.013470    0.000000    0.000000    40     0.1753
  2. axis:    yes    0.000000    6.073843    0.000000    32     0.1898
  3. axis:    yes    0.000000    0.000000   29.936001   160     0.1871

  Lengths:   7.013470   6.073843  29.936001
  Angles:   90.000000  90.000000  90.000000

Effective grid spacing dv^(1/3) = 0.1840

                     log10-error:    total        iterations:
           time      wfs    density  energy       fermi  poisson
iter:   1  11:11:55  -2.85         -154.937955    4             
iter:   2  11:12:06  -3.49  -2.03  -154.963773    5             
iter:   3  11:12:17  -4.42  -1.96  -154.914855    4             
iter:   4  11:12:28  -4.67  -2.42  -154.910754    3             
iter:   5  11:12:39  -4.36  -2.58  -154.906654    3             
iter:   6  11:12:50  -5.31  -2.90  -154.907987    3             
iter:   7  11:13:01  -5.74  -2.95  -154.907789    2             
iter:   8  11:13:12  -5.65  -3.04  -154.906466    3             
iter:   9  11:13:24  -5.93  -3.13  -154.907067    3             
iter:  10  11:13:35  -6.97  -3.51  -154.906849    3             
iter:  11  11:13:46  -6.89  -3.66  -154.906844    2             
iter:  12  11:13:57  -7.67  -3.71  -154.906854    2             
iter:  13  11:14:08  -7.08  -3.80  -154.906890    2             
iter:  14  11:14:19  -7.15  -3.97  -154.906898    2             
iter:  15  11:14:30  -7.35  -4.14  -154.906881    2             
iter:  16  11:14:42  -8.48  -4.34  -154.906881    2             

Converged after 16 iterations.

Dipole moment: (0.195306, -3.033915, 5.613965) |e|*Ang

Energy contributions relative to reference atoms: (reference = -25283.807400)

Kinetic:       +175.948940
Potential:     -128.342699
External:        +0.000000
XC:            -201.465052
Entropy (-ST):   -0.020329
Local:           -1.037906
--------------------------
Free energy:   -154.917045
Extrapolated:  -154.906881

Non-local vdW-DF-cx correlation energy: 15.281045
Semilocal GGA_X_LV_RPW86+LDA_C_PW energy: -1088.285491
(Not including atomic contributions)
Fermi level: -0.90896

Showing only first 2 kpts
 Kpt  Band  Eigenvalues  Occupancy
  0    46     -1.29899    0.13333
  0    47     -0.82285    0.00715
  0    48     -0.68707    0.00008
  0    49     -0.26406    0.00000

  1    46     -1.30793    0.13333
  1    47     -1.12038    0.13322
  1    48     -0.82616    0.00794
  1    49     -0.27881    0.00000


No gap

Forces in eV/Ang:
  0 Li   -0.00104   -0.00052   -0.10455
  1 Li    0.00001   -0.00032   -0.10507
  2 Li   -0.00000   -0.00052   -0.11217
  3 Li    0.00102   -0.00053   -0.10447
  4 Li   -0.00708    0.01184    0.03610
  5 Li    0.00008    0.01222    0.00765
  6 Li   -0.00006   -0.01134    0.05726
  7 Li    0.00679    0.01189    0.03634
  8 Li   -0.00291   -0.00072    0.02734
  9 Li    0.00016   -0.00881    0.02214
 10 Li    0.00022    0.02124    0.06112
 11 Li    0.00306   -0.00069    0.02753
 12 Li    0.05211    0.00177   -0.04969
 13 Li   -0.00134    0.00258   -0.13406
 14 Li    0.00147   -0.00199    0.10497
 15 Li   -0.05201    0.00164   -0.04878
 16 Li    0.02000    0.00659   -0.01815
 17 Li    0.00311   -0.01352    0.11417
 18 Li   -0.00332    0.02339   -0.03509
 19 Li   -0.02011    0.00285   -0.01538
 20 Li    0.02260    0.00042   -0.01215
 21 Li    0.00341    0.01103    0.10002
 22 Li   -0.00360   -0.01821   -0.03898
 23 Li   -0.02261    0.00384   -0.00974
 24 Li   -0.01832    0.00008    0.05572
 25 Li   -0.00417    0.02794    0.02041
 26 Li    0.00313    0.00872   -0.00117
 27 Li    0.01803   -0.00137    0.03269
 28 Li    0.00998    0.02660   -0.03756
 29 Li   -0.00570   -0.14852   -0.09533
 30 Li   -0.00062   -0.08153    0.02338
 31 Li   -0.00817    0.02876   -0.04812
 32 Li    0.00483   -0.01421    0.00181
 33 Li   -0.00392    0.12542    0.09562
 34 Li   -0.00179    0.07980    0.03064
 35 Li   -0.00434   -0.01858   -0.01225
 36 N    -0.03322    0.02748   -0.01544
 37 N     0.00028    0.01367   -0.00393
 38 N    -0.00032    0.01916   -0.21792
 39 N     0.03299    0.02758   -0.01387
 40 N    -0.04274    0.00612    0.01366
 41 N    -0.00240    0.00620    0.02000
 42 N     0.00293    0.01314    0.05577
 43 N     0.04340    0.00679   -0.00046
 44 N    -0.02726    0.03266    0.10370
 45 N    -0.00332   -0.00366    0.05541
 46 N     0.00563   -0.00153   -0.04696
 47 N     0.03287    0.03310    0.17046
 48 Li    0.00237   -0.11200   -0.10674

System changes: positions 

Initializing position-dependent things.

Density initialized from wave functions
     .----------------.  
    /|                |  
   / |                |  
  /  |                |  
 *   |                |  
 |   |                |  
 |   |                |  
 |   |                |  
 |   |                |  
 |   |                |  
 |   |                |  
 |   |                |  
 |   |                |  
 |   |                |  
 |   |                |  
 |   |                |  
 |   |                |  
 |   |                |  
 |   |                |  
 |   |                |  
 |   |                |  
 |   |                |  
 |   |                |  
 |   |                |  
 |   |                |  
 |   |   N       N Li |  
 |  Li      Li        |  
 |   | Li       Li N  |  
 |   |Li LLi  Li Li   |  
 Li  |                |  
 |Li |   N Li    N    |  
 |   |      Li       Li  
 |N  | Li  N    Li    |  
 |   |Li Li   Li Li   |  
 |   |    Li      Li  |  
 |Li |   N Li    N    |  
 |  Li      Li        |  
 |N  .-Li--N----Li----.  
 |  / Li Li   Li Li  /   
 Li/      Li        /    
 |/i       Li      /     
 *----------------*      

Positions:
   0 Li     1.753389    5.061850    0.000000    ( 0.0000,  0.0000,  0.0000)
   1 Li     0.000000    2.024928    0.000000    ( 0.0000,  0.0000,  0.0000)
   2 Li     3.506756    2.024928    0.000000    ( 0.0000,  0.0000,  0.0000)
   3 Li     5.260124    5.061850    0.000000    ( 0.0000,  0.0000,  0.0000)
   4 Li     1.753389    3.037256    1.946139    ( 0.0000,  0.0000,  0.0000)
   5 Li     0.000000    0.000334    1.946139    ( 0.0000,  0.0000,  0.0000)
   6 Li     3.506756    0.000334    1.946139    ( 0.0000,  0.0000,  0.0000)
   7 Li     5.260124    3.037256    1.946139    ( 0.0000,  0.0000,  0.0000)
   8 Li     1.753367    1.012631    1.946139    ( 0.0000,  0.0000,  0.0000)
   9 Li     0.000000    4.049553    1.946139    ( 0.0000,  0.0000,  0.0000)
  10 Li     3.506735    4.049553    1.946139    ( 0.0000,  0.0000,  0.0000)
  11 Li     5.260103    1.012631    1.946139    ( 0.0000,  0.0000,  0.0000)
  12 Li     1.717396    5.085132    3.954776    ( 0.0000,  0.0000,  0.0000)
  13 Li     0.000084    2.030894    3.955717    ( 0.0000,  0.0000,  0.0000)
  14 Li     3.506633    2.042069    3.896730    ( 0.0000,  0.0000,  0.0000)
  15 Li     5.296210    5.085188    3.955867    ( 0.0000,  0.0000,  0.0000)
  16 Li     1.751744    3.072149    5.873037    ( 0.0000,  0.0000,  0.0000)
  17 Li    -0.000166    0.033592    5.988389    ( 0.0000,  0.0000,  0.0000)
  18 Li     3.507237    0.034377    5.880587    ( 0.0000,  0.0000,  0.0000)
  19 Li     5.262062    3.071828    5.875829    ( 0.0000,  0.0000,  0.0000)
  20 Li     1.750809    1.044102    5.892799    ( 0.0000,  0.0000,  0.0000)
  21 Li    -0.000190    4.090460    5.945811    ( 0.0000,  0.0000,  0.0000)
  22 Li     3.507267    4.082815    5.886151    ( 0.0000,  0.0000,  0.0000)
  23 Li     5.262967    1.044407    5.895579    ( 0.0000,  0.0000,  0.0000)
  24 Li     1.883796    5.082752    7.932658    ( 0.0000,  0.0000,  0.0000)
  25 Li     0.004996    2.118296    7.879333    ( 0.0000,  0.0000,  0.0000)
  26 Li     3.502985    2.071689    7.792942    ( 0.0000,  0.0000,  0.0000)
  27 Li     5.130479    5.082560    7.929773    ( 0.0000,  0.0000,  0.0000)
  28 Li     1.766581    3.122877    9.689840    ( 0.0000,  0.0000,  0.0000)
  29 Li     0.000836    0.049517    9.875422    ( 0.0000,  0.0000,  0.0000)
  30 Li     3.508776    0.142142   10.520736    ( 0.0000,  0.0000,  0.0000)
  31 Li     5.246997    3.123197    9.682187    ( 0.0000,  0.0000,  0.0000)
  32 Li     1.816787    1.036190    9.657170    ( 0.0000,  0.0000,  0.0000)
  33 Li     0.000204    4.098143   10.275590    ( 0.0000,  0.0000,  0.0000)
  34 Li     3.508297    4.059405   10.374004    ( 0.0000,  0.0000,  0.0000)
  35 Li     5.196340    1.036105    9.646263    ( 0.0000,  0.0000,  0.0000)
  36 N      1.753389    5.061910    1.929076    ( 0.0000,  0.0000,  0.0000)
  37 N      0.000000    2.024989    1.929076    ( 0.0000,  0.0000,  0.0000)
  38 N      3.506756    2.024989    1.929076    ( 0.0000,  0.0000,  0.0000)
  39 N      5.260124    5.061910    1.929076    ( 0.0000,  0.0000,  0.0000)
  40 N      1.763417    5.096790    5.909760    ( 0.0000,  0.0000,  0.0000)
  41 N      0.000559    2.063671    5.892370    ( 0.0000,  0.0000,  0.0000)
  42 N      3.506500    2.059902    5.819317    ( 0.0000,  0.0000,  0.0000)
  43 N      5.250309    5.096750    5.910897    ( 0.0000,  0.0000,  0.0000)
  44 N      1.775719    5.125715    9.907579    ( 0.0000,  0.0000,  0.0000)
  45 N     -0.000599    2.078217    9.837669    ( 0.0000,  0.0000,  0.0000)
  46 N      3.506847    2.095180    9.713622    ( 0.0000,  0.0000,  0.0000)
  47 N      5.238674    5.126054    9.898185    ( 0.0000,  0.0000,  0.0000)
  48 Li     6.989172    1.837355   11.715068    ( 0.0000,  0.0000,  0.0000)

Unit cell:
           periodic     x           y           z      points  spacing
  1. axis:    yes    7.013470    0.000000    0.000000    40     0.1753
  2. axis:    yes    0.000000    6.073843    0.000000    32     0.1898
  3. axis:    yes    0.000000    0.000000   29.936001   160     0.1871

  Lengths:   7.013470   6.073843  29.936001
  Angles:   90.000000  90.000000  90.000000

Effective grid spacing dv^(1/3) = 0.1840

                     log10-error:    total        iterations:
           time      wfs    density  energy       fermi  poisson
iter:   1  11:15:04  -3.43         -154.917010    3             
iter:   2  11:15:15  -4.13  -2.37  -154.922560    4             
iter:   3  11:15:27  -5.25  -2.46  -154.915627    3             
iter:   4  11:15:38  -4.40  -2.68  -154.918731    3             
iter:   5  11:15:49  -5.26  -2.33  -154.911631    3             
iter:   6  11:16:00  -6.12  -3.08  -154.911723    3             
iter:   7  11:16:11  -5.53  -3.20  -154.911714    3             
iter:   8  11:16:22  -6.23  -3.32  -154.911678    2             
iter:   9  11:16:34  -6.60  -3.39  -154.911931    3             
iter:  10  11:16:45  -7.34  -3.70  -154.911985    2             
iter:  11  11:16:56  -6.90  -3.87  -154.912000    2             
iter:  12  11:17:07  -7.58  -4.11  -154.911997    2             
iter:  13  11:17:18  -8.73  -4.20  -154.912000    2             

Converged after 13 iterations.

Dipole moment: (0.203384, -3.032277, 5.609267) |e|*Ang

Energy contributions relative to reference atoms: (reference = -25283.807400)

Kinetic:       +175.684638
Potential:     -128.162219
External:        +0.000000
XC:            -201.383920
Entropy (-ST):   -0.020348
Local:           -1.040325
--------------------------
Free energy:   -154.922174
Extrapolated:  -154.912000

Non-local vdW-DF-cx correlation energy: 15.278253
Semilocal GGA_X_LV_RPW86+LDA_C_PW energy: -1088.223644
(Not including atomic contributions)
Fermi level: -0.90414

Showing only first 2 kpts
 Kpt  Band  Eigenvalues  Occupancy
  0    46     -1.29657    0.13333
  0    47     -0.81877    0.00732
  0    48     -0.68175    0.00008
  0    49     -0.26096    0.00000

  1    46     -1.31244    0.13333
  1    47     -1.11505    0.13322
  1    48     -0.82092    0.00783
  1    49     -0.27453    0.00000


No gap

Forces in eV/Ang:
  0 Li   -0.00083   -0.00059   -0.10438
  1 Li    0.00000   -0.00038   -0.10533
  2 Li    0.00000   -0.00063   -0.11164
[...]
           periodic     x           y           z      points  spacing
  1. axis:    yes    7.013470    0.000000    0.000000    40     0.1753
  2. axis:    yes    0.000000    6.073843    0.000000    32     0.1898
  3. axis:    yes    0.000000    0.000000   29.936001   160     0.1871

  Lengths:   7.013470   6.073843  29.936001
  Angles:   90.000000  90.000000  90.000000

Effective grid spacing dv^(1/3) = 0.1840

                     log10-error:    total        iterations:
           time      wfs    density  energy       fermi  poisson
iter:   1  11:24:56  -2.07         -155.290421    4             
iter:   2  11:25:07  -2.56  -1.56  -155.591664    5             
iter:   3  11:25:18  -3.62  -1.61  -155.055084    6             
iter:   4  11:25:29  -3.18  -1.81  -155.062611    4             
iter:   5  11:25:40  -3.87  -1.78  -154.970031    4             
iter:   6  11:25:51  -4.61  -2.39  -154.964637    3             
iter:   7  11:26:03  -4.25  -2.52  -154.966599    3             
iter:   8  11:26:14  -5.24  -2.31  -154.959324    3             
iter:   9  11:26:25  -5.42  -2.83  -154.959631    3             
iter:  10  11:26:36  -5.46  -3.07  -154.959801    3             
iter:  11  11:26:47  -5.68  -3.25  -154.959878    2             
iter:  12  11:26:58  -6.16  -3.34  -154.959967    2             
iter:  13  11:27:10  -6.65  -3.34  -154.959803    3             
iter:  14  11:27:21  -7.12  -3.51  -154.959699    2             
iter:  15  11:27:32  -6.60  -3.73  -154.959664    2             
iter:  16  11:27:43  -7.39  -3.97  -154.959622    2             
iter:  17  11:27:54  -7.61  -4.05  -154.959634    2             
iter:  18  11:28:05  -7.94  -4.22  -154.959647    2             
iter:  19  11:28:17  -7.92  -4.29  -154.959665    2             
iter:  20  11:28:28  -8.27  -4.27  -154.959660    2             

Converged after 20 iterations.

Dipole moment: (0.288729, -2.708732, 5.488662) |e|*Ang

Energy contributions relative to reference atoms: (reference = -25283.807400)

Kinetic:       +172.775417
Potential:     -126.177395
External:        +0.000000
XC:            -200.510808
Entropy (-ST):   -0.020537
Local:           -1.036606
--------------------------
Free energy:   -154.969929
Extrapolated:  -154.959660

Non-local vdW-DF-cx correlation energy: 15.249914
Semilocal GGA_X_LV_RPW86+LDA_C_PW energy: -1087.564471
(Not including atomic contributions)
Fermi level: -0.87338

Showing only first 2 kpts
 Kpt  Band  Eigenvalues  Occupancy
  0    46     -1.31754    0.13333
  0    47     -0.77905    0.00551
  0    48     -0.65653    0.00010
  0    49     -0.25815    0.00000

  1    46     -1.35153    0.13333
  1    47     -1.07729    0.13318
  1    48     -0.79362    0.00873
  1    49     -0.25547    0.00000


No gap

Forces in eV/Ang:
  0 Li    0.00025   -0.00124   -0.10847
  1 Li   -0.00006   -0.00077   -0.11474
  2 Li    0.00006   -0.00109   -0.11353
  3 Li   -0.00028   -0.00124   -0.10774
  4 Li    0.00329    0.01969    0.04057
  5 Li   -0.00105    0.01186   -0.02019
  6 Li    0.00095   -0.00558    0.07501
  7 Li   -0.00355    0.02130    0.04113
  8 Li    0.01134    0.00644    0.01922
  9 Li   -0.00083   -0.00169    0.01556
 10 Li    0.00110    0.02785    0.08331
 11 Li   -0.01116    0.00469    0.01992
 12 Li    0.07096   -0.04440    0.01494
 13 Li   -0.00455   -0.00767    0.08051
 14 Li    0.00510   -0.03552   -0.12949
 15 Li   -0.07058   -0.04470   -0.01608
 16 Li   -0.04523    0.01240   -0.03922
 17 Li    0.00032    0.03305    0.03794
 18 Li    0.00123   -0.00642   -0.09840
 19 Li    0.04433    0.02426   -0.05594
 20 Li   -0.05669    0.01691   -0.03605
 21 Li   -0.00065    0.00793    0.02511
 22 Li    0.00077    0.03327   -0.10008
 23 Li    0.05513    0.00562   -0.05207
 24 Li   -0.00961    0.03637    0.07115
 25 Li    0.00054    0.04352   -0.19702
 26 Li   -0.00666    0.01470    0.11441
 27 Li    0.01712    0.03333    0.16215
 28 Li    0.07049   -0.01122    0.13938
 29 Li    0.00860   -0.10498   -0.07607
 30 Li    0.00540    0.12694   -0.07791
 31 Li   -0.07485   -0.00691    0.13331
 32 Li    0.10769    0.12923    0.17877
 33 Li    0.00596    0.00770    0.14777
 34 Li    0.00189   -0.17616   -0.04775
 35 Li   -0.11979    0.12288    0.17140
 36 N    -0.05358    0.04349    0.06440
 37 N     0.00069    0.00853   -0.00285
 38 N    -0.00081    0.02394   -0.10634
 39 N     0.05363    0.04368    0.06989
 40 N     0.00877   -0.01473   -0.02126
 41 N     0.00483   -0.00618   -0.00361
 42 N    -0.00603   -0.02299   -0.00958
 43 N    -0.00701   -0.01517   -0.00349
 44 N    -0.16326   -0.04751    0.02179
 45 N     0.00690   -0.00278   -0.10504
 46 N    -0.00506    0.03707   -0.10089
 47 N     0.15607   -0.04234   -0.02668
 48 Li   -0.00225   -0.19562   -0.11976

System changes: positions 

Initializing position-dependent things.

Density initialized from wave functions
     .----------------.  
    /|                |  
   / |                |  
  /  |                |  
 *   |                |  
 |   |                |  
 |   |                |  
 |   |                |  
 |   |                |  
 |   |                |  
 |   |                |  
 |   |                |  
 |   |                |  
 |   |                |  
 |   |                |  
 |   |                |  
 |   |                |  
 |   |                |  
 |   |                |  
 |   |                |  
 |   |                |  
 |   |                |  
 |   |                |  
 |   |                |  
 |   |                |  
 |  Li   N  Li   N Li Li 
 |   |                |  
 |   | Li       Li N  |  
 |   |Li LLi  Li Li   |  
 |   |                |  
 |Li |   N Li    N    |  
 |  Li      Li        |  
 |N  | Li  N    Li    |  
 Li  |LiLi    Li Li   |  
 |   |    Li          |  
 |   |   N Li    N Li |  
 |  Li      Li        |  
 |N  .-Li--N----Li----.  
 |  / Li Li   Li Li  /   
 Li/      Li        /    
 |/i       Li      /     
 *----------------*      

Positions:
   0 Li     1.753389    5.061850    0.000000    ( 0.0000,  0.0000,  0.0000)
   1 Li     0.000000    2.024928    0.000000    ( 0.0000,  0.0000,  0.0000)
   2 Li     3.506756    2.024928    0.000000    ( 0.0000,  0.0000,  0.0000)
   3 Li     5.260124    5.061850    0.000000    ( 0.0000,  0.0000,  0.0000)
   4 Li     1.753389    3.037256    1.946139    ( 0.0000,  0.0000,  0.0000)
   5 Li     0.000000    0.000334    1.946139    ( 0.0000,  0.0000,  0.0000)
   6 Li     3.506756    0.000334    1.946139    ( 0.0000,  0.0000,  0.0000)
   7 Li     5.260124    3.037256    1.946139    ( 0.0000,  0.0000,  0.0000)
   8 Li     1.753367    1.012631    1.946139    ( 0.0000,  0.0000,  0.0000)
   9 Li     0.000000    4.049553    1.946139    ( 0.0000,  0.0000,  0.0000)
  10 Li     3.506735    4.049553    1.946139    ( 0.0000,  0.0000,  0.0000)
  11 Li     5.260103    1.012631    1.946139    ( 0.0000,  0.0000,  0.0000)
  12 Li     1.701790    5.116474    3.974777    ( 0.0000,  0.0000,  0.0000)
  13 Li    -0.000800    2.040568    3.935990    ( 0.0000,  0.0000,  0.0000)
  14 Li     3.507572    2.063046    3.928750    ( 0.0000,  0.0000,  0.0000)
  15 Li     5.312015    5.116541    3.978528    ( 0.0000,  0.0000,  0.0000)
  16 Li     1.755207    3.079611    5.865636    ( 0.0000,  0.0000,  0.0000)
  17 Li     0.000778    0.037564    6.118823    ( 0.0000,  0.0000,  0.0000)
  18 Li     3.506364    0.045598    5.941914    ( 0.0000,  0.0000,  0.0000)
  19 Li     5.259032    3.078176    5.874115    ( 0.0000,  0.0000,  0.0000)
  20 Li     1.754420    1.049262    5.898512    ( 0.0000,  0.0000,  0.0000)
  21 Li     0.000821    4.097029    6.048368    ( 0.0000,  0.0000,  0.0000)
  22 Li     3.506322    4.084444    5.939535    ( 0.0000,  0.0000,  0.0000)
  23 Li     5.259794    1.050527    5.906252    ( 0.0000,  0.0000,  0.0000)
  24 Li     1.929117    5.074625    7.972954    ( 0.0000,  0.0000,  0.0000)
  25 Li     0.004695    2.137738    7.901021    ( 0.0000,  0.0000,  0.0000)
  26 Li     3.505566    2.075721    7.782462    ( 0.0000,  0.0000,  0.0000)
  27 Li     5.081448    5.073809    7.962403    ( 0.0000,  0.0000,  0.0000)
  28 Li     1.747531    3.156606    9.608905    ( 0.0000,  0.0000,  0.0000)
  29 Li    -0.000165   -0.000022    9.748636    ( 0.0000,  0.0000,  0.0000)
  30 Li     3.508364    0.152004   10.605951    ( 0.0000,  0.0000,  0.0000)
  31 Li     5.267816    3.157769    9.606444    ( 0.0000,  0.0000,  0.0000)
  32 Li     1.832358    1.034791    9.614551    ( 0.0000,  0.0000,  0.0000)
  33 Li     0.000490    4.132960   10.484947    ( 0.0000,  0.0000,  0.0000)
  34 Li     3.507247    4.069095   10.451496    ( 0.0000,  0.0000,  0.0000)
  35 Li     5.181775    1.033529    9.602072    ( 0.0000,  0.0000,  0.0000)
  36 N      1.753389    5.061910    1.929076    ( 0.0000,  0.0000,  0.0000)
  37 N      0.000000    2.024989    1.929076    ( 0.0000,  0.0000,  0.0000)
  38 N      3.506756    2.024989    1.929076    ( 0.0000,  0.0000,  0.0000)
  39 N      5.260124    5.061910    1.929076    ( 0.0000,  0.0000,  0.0000)
  40 N      1.757003    5.103588    5.965310    ( 0.0000,  0.0000,  0.0000)
  41 N      0.000308    2.070036    5.916010    ( 0.0000,  0.0000,  0.0000)
  42 N      3.507603    2.068684    5.838582    ( 0.0000,  0.0000,  0.0000)
  43 N      5.256784    5.103733    5.963609    ( 0.0000,  0.0000,  0.0000)
  44 N      1.780101    5.147632    9.955453    ( 0.0000,  0.0000,  0.0000)
  45 N     -0.000951    2.080846    9.846826    ( 0.0000,  0.0000,  0.0000)
  46 N      3.509024    2.114058    9.684462    ( 0.0000,  0.0000,  0.0000)
  47 N      5.236269    5.148413    9.963413    ( 0.0000,  0.0000,  0.0000)
  48 Li     6.984135    1.652077   11.671087    ( 0.0000,  0.0000,  0.0000)

Unit cell:
           periodic     x           y           z      points  spacing
  1. axis:    yes    7.013470    0.000000    0.000000    40     0.1753
  2. axis:    yes    0.000000    6.073843    0.000000    32     0.1898
  3. axis:    yes    0.000000    0.000000   29.936001   160     0.1871

  Lengths:   7.013470   6.073843  29.936001
  Angles:   90.000000  90.000000  90.000000

Effective grid spacing dv^(1/3) = 0.1840

                     log10-error:    total        iterations:
           time      wfs    density  energy       fermi  poisson
iter:   1  11:28:50  -2.55         -155.081920    4             
iter:   2  11:29:02  -3.01  -1.78  -155.248732    5             
iter:   3  11:29:13  -3.88  -1.70  -154.992994    4             
iter:   4  11:29:24  -4.34  -2.26  -154.984639    3             
iter:   5  11:29:34  -4.02  -2.40  -154.976126    3             
iter:   6  11:29:46  -5.05  -2.58  -154.976941    3             
iter:   7  11:29:57  -5.32  -2.81  -154.978769    3             
iter:   8  11:30:07  -5.50  -2.73  -154.975930    3             
iter:   9  11:30:18  -5.60  -3.06  -154.974711    3             
iter:  10  11:30:29  -5.62  -3.01  -154.975461    3             
iter:  11  11:30:40  -6.78  -3.36  -154.975191    3             
iter:  12  11:30:51  -6.72  -3.56  -154.975058    2             
iter:  13  11:31:02  -7.18  -3.78  -154.975097    2             
iter:  14  11:31:13  -7.05  -3.89  -154.975113    2             
iter:  15  11:31:24  -7.14  -4.02  -154.975080    2             
iter:  16  11:31:35  -7.91  -4.21  -154.975075    2             
iter:  17  11:31:46  -7.91  -4.28  -154.975082    2             
iter:  18  11:31:57  -8.38  -4.44  -154.975094    2             

Converged after 18 iterations.

Dipole moment: (0.293689, -2.573532, 5.458158) |e|*Ang

Energy contributions relative to reference atoms: (reference = -25283.807400)

Kinetic:       +172.133248
Potential:     -125.746189
External:        +0.000000
XC:            -200.319242
Entropy (-ST):   -0.020480
Local:           -1.032672
--------------------------
Free energy:   -154.985334
Extrapolated:  -154.975094

Non-local vdW-DF-cx correlation energy: 15.244313
Semilocal GGA_X_LV_RPW86+LDA_C_PW energy: -1087.421611
(Not including atomic contributions)
Fermi level: -0.87195

Showing only first 2 kpts
 Kpt  Band  Eigenvalues  Occupancy
  0    46     -1.33272    0.13333
  0    47     -0.77264    0.00470
  0    48     -0.65859    0.00011
  0    49     -0.26249    0.00000

  1    46     -1.35958    0.13333
  1    47     -1.07454    0.13318
  1    48     -0.79447    0.00937
  1    49     -0.25697    0.00000


No gap

Forces in eV/Ang:
  0 Li    0.00058   -0.00135   -0.10977
  1 Li   -0.00004   -0.00082   -0.11732
  2 Li    0.00004   -0.00115   -0.11472
  3 Li   -0.00061   -0.00135   -0.10907
  4 Li    0.00548    0.02127    0.04073
  5 Li   -0.00093    0.01049   -0.02251
  6 Li    0.00086   -0.00438    0.07505
  7 Li   -0.00574    0.02297    0.04071
  8 Li    0.01388    0.00719    0.01744
  9 Li   -0.00070    0.00091    0.01619
 10 Li    0.00100    0.02833    0.08446
 11 Li   -0.01370    0.00534    0.01760
 12 Li    0.05613   -0.05093    0.03857
 13 Li   -0.00426   -0.00931    0.15399
 14 Li    0.00494   -0.04032   -0.15239
 15 Li   -0.05594   -0.05125    0.01187
 16 Li   -0.06659    0.01194   -0.03485
 17 Li   -0.00180    0.05349    0.01184
 18 Li    0.00369   -0.03379   -0.08848
 19 Li    0.06548    0.02631   -0.05338
 20 Li   -0.08000    0.01268   -0.03278
 21 Li   -0.00279   -0.00947   -0.00098
 22 Li    0.00351    0.05673   -0.08817
 23 Li    0.07856   -0.00085   -0.05044
 24 Li   -0.00382    0.04610    0.05530
 25 Li    0.00138    0.03748   -0.13509
 26 Li   -0.00846    0.01491    0.04695
 27 Li    0.01192    0.04277    0.15006
 28 Li    0.00542   -0.00752    0.17738
 29 Li    0.01083   -0.00559   -0.09162
 30 Li    0.00592    0.11350   -0.08654
 31 Li   -0.00885   -0.00545    0.17494
 32 Li    0.04282    0.11701    0.19832
 33 Li    0.00714   -0.08066    0.14521
 34 Li    0.00240   -0.16736   -0.05070
 35 Li   -0.05428    0.11350    0.19388
 36 N    -0.05312    0.04590    0.07687
 37 N     0.00042    0.00778   -0.00951
 38 N    -0.00053    0.02443   -0.08766
 39 N     0.05315    0.04610    0.08057
 40 N     0.07376   -0.00972   -0.04119
 41 N     0.00562   -0.00257   -0.06717
 42 N    -0.00765   -0.02201   -0.05627
 43 N    -0.07231   -0.01091   -0.01800
 44 N    -0.08307   -0.05326    0.01767
 45 N     0.00792    0.00510   -0.20715
 46 N    -0.00820    0.05516   -0.02618
 47 N     0.07425   -0.04796   -0.03788
 48 Li   -0.00400   -0.21994   -0.08898

System changes: positions 

Initializing position-dependent things.

Density initialized from wave functions
     .----------------.  
    /|                |  
   / |                |  
  /  |                |  
 *   |                |  
 |   |                |  
 |   |                |  
 |   |                |  
 |   |                |  
 |   |                |  
 |   |                |  
 |   |                |  
 |   |                |  
 |   |                |  
 |   |                |  
 |   |                |  
 |   |                |  
 |   |                |  
 |   |                |  
 |   |                |  
 |   |                |  
 |   |                |  
 |   |                |  
 |   |                |  
 |   |                |  
 |  Li   N  Li   N    Li 
 |   |             Li |  
 |   | Li       Li N  |  
 |   |Li LLi  Li Li   |  
 |   |                |  
 |Li |   N Li    N    |  
 |  Li      Li        |  
 |N  | Li  N    Li    |  
 Li  |Li Li   Li Li   |  
 |   |    Li          |  
 |   |   N Li    N Li |  
 |  Li      Li        |  
 |N  .-Li--N----Li----.  
 |  / Li Li   Li Li  /   
 Li/      Li        /    
 |/i       Li      /     
 *----------------*      

Positions:
   0 Li     1.753389    5.061850    0.000000    ( 0.0000,  0.0000,  0.0000)
   1 Li     0.000000    2.024928    0.000000    ( 0.0000,  0.0000,  0.0000)
   2 Li     3.506756    2.024928    0.000000    ( 0.0000,  0.0000,  0.0000)
   3 Li     5.260124    5.061850    0.000000    ( 0.0000,  0.0000,  0.0000)
   4 Li     1.753389    3.037256    1.946139    ( 0.0000,  0.0000,  0.0000)
   5 Li     0.000000    0.000334    1.946139    ( 0.0000,  0.0000,  0.0000)
   6 Li     3.506756    0.000334    1.946139    ( 0.0000,  0.0000,  0.0000)
   7 Li     5.260124    3.037256    1.946139    ( 0.0000,  0.0000,  0.0000)
   8 Li     1.753367    1.012631    1.946139    ( 0.0000,  0.0000,  0.0000)
   9 Li     0.000000    4.049553    1.946139    ( 0.0000,  0.0000,  0.0000)
  10 Li     3.506735    4.049553    1.946139    ( 0.0000,  0.0000,  0.0000)
  11 Li     5.260103    1.012631    1.946139    ( 0.0000,  0.0000,  0.0000)
  12 Li     1.704198    5.119059    3.977325    ( 0.0000,  0.0000,  0.0000)
  13 Li    -0.001199    2.041697    3.933190    ( 0.0000,  0.0000,  0.0000)
  14 Li     3.508011    2.064380    3.929179    ( 0.0000,  0.0000,  0.0000)
  15 Li     5.309658    5.119105    3.979813    ( 0.0000,  0.0000,  0.0000)
  16 Li     1.754494    3.081590    5.861915    ( 0.0000,  0.0000,  0.0000)
  17 Li     0.001032    0.038822    6.143245    ( 0.0000,  0.0000,  0.0000)
  18 Li     3.506199    0.048462    5.945563    ( 0.0000,  0.0000,  0.0000)
  19 Li     5.259758    3.080434    5.870467    ( 0.0000,  0.0000,  0.0000)
  20 Li     1.753208    1.050951    5.897094    ( 0.0000,  0.0000,  0.0000)
  21 Li     0.001042    4.099539    6.067505    ( 0.0000,  0.0000,  0.0000)
  22 Li     3.506112    4.085139    5.941806    ( 0.0000,  0.0000,  0.0000)
  23 Li     5.260985    1.051930    5.904821    ( 0.0000,  0.0000,  0.0000)
  24 Li     1.935694    5.075253    7.983920    ( 0.0000,  0.0000,  0.0000)
  25 Li     0.004606    2.143644    7.893108    ( 0.0000,  0.0000,  0.0000)
  26 Li     3.505691    2.077312    7.787386    ( 0.0000,  0.0000,  0.0000)
  27 Li     5.074654    5.074146    7.976189    ( 0.0000,  0.0000,  0.0000)
  28 Li     1.749839    3.161530    9.602716    ( 0.0000,  0.0000,  0.0000)
  29 Li    -0.000009   -0.018719    9.722791    ( 0.0000,  0.0000,  0.0000)
  30 Li     3.508548    0.159448   10.615658    ( 0.0000,  0.0000,  0.0000)
  31 Li     5.265583    3.163072    9.600566    ( 0.0000,  0.0000,  0.0000)
  32 Li     1.841640    1.041238    9.617223    ( 0.0000,  0.0000,  0.0000)
  33 Li     0.000744    4.144019   10.527206    ( 0.0000,  0.0000,  0.0000)
  34 Li     3.507126    4.061890   10.461700    ( 0.0000,  0.0000,  0.0000)
  35 Li     5.172022    1.039382    9.603827    ( 0.0000,  0.0000,  0.0000)
  36 N      1.753389    5.061910    1.929076    ( 0.0000,  0.0000,  0.0000)
  37 N      0.000000    2.024989    1.929076    ( 0.0000,  0.0000,  0.0000)
  38 N      3.506756    2.024989    1.929076    ( 0.0000,  0.0000,  0.0000)
  39 N      5.260124    5.061910    1.929076    ( 0.0000,  0.0000,  0.0000)
  40 N      1.753695    5.103994    5.973667    ( 0.0000,  0.0000,  0.0000)
  41 N      0.000427    2.070831    5.921420    ( 0.0000,  0.0000,  0.0000)
  42 N      3.507568    2.069128    5.842418    ( 0.0000,  0.0000,  0.0000)
  43 N      5.260217    5.104167    5.972286    ( 0.0000,  0.0000,  0.0000)
  44 N      1.769744    5.149512    9.966481    ( 0.0000,  0.0000,  0.0000)
  45 N     -0.000763    2.080839    9.846381    ( 0.0000,  0.0000,  0.0000)
  46 N      3.509263    2.118754    9.673320    ( 0.0000,  0.0000,  0.0000)
  47 N      5.246791    5.150655    9.976427    ( 0.0000,  0.0000,  0.0000)
  48 Li     6.983281    1.610424   11.654564    ( 0.0000,  0.0000,  0.0000)

Unit cell:
           periodic     x           y           z      points  spacing
  1. axis:    yes    7.013470    0.000000    0.000000    40     0.1753
  2. axis:    yes    0.000000    6.073843    0.000000    32     0.1898
  3. axis:    yes    0.000000    0.000000   29.936001   160     0.1871

  Lengths:   7.013470   6.073843  29.936001
  Angles:   90.000000  90.000000  90.000000

Effective grid spacing dv^(1/3) = 0.1840

                     log10-error:    total        iterations:
           time      wfs    density  energy       fermi  poisson
iter:   1  11:32:20  -2.57         -155.061855    3             
iter:   2  11:32:31  -3.17  -1.88  -155.152148    5             
iter:   3  11:32:42  -4.03  -1.77  -155.004247    4             
