
  ___ ___ ___ _ _ _  
 |   |   |_  | | | | 
 | | | | | . | | | | 
 |__ |  _|___|_____|  20.1.0
 |___|_|             

User:   jngwng01@n716005
Date:   Mon Sep  6 10:09:36 2021
Arch:   x86_64
Pid:    23341
Python: 3.8.5
gpaw:   /uls/7/gpaw-20.1.0/lib/python3.8/site-packages/gpaw-20.1.0-py3.8-linux-x86_64.egg/gpaw
_gpaw:  /uls/7/gpaw-20.1.0/lib/python3.8/site-packages/gpaw-20.1.0-py3.8-linux-x86_64.egg/
        _gpaw.cpython-38-x86_64-linux-gnu.so
ase:    /uls/7/gpaw-20.1.0/lib/python3.8/site-packages/ase-3.20.1-py3.8.egg/ase (version 3.20.1)
numpy:  /uls/7/gpaw-20.1.0/lib/python3.8/site-packages/numpy (version 1.19.2)
scipy:  /uls/7/gpaw-20.1.0/lib/python3.8/site-packages/scipy-1.5.2-py3.8-linux-x86_64.egg/scipy (version 1.5.2)
libxc:  4.3.4
units:  Angstrom and eV
cores: 32
OMP_NUM_THREADS: 1

Input parameters:
  convergence: {eigenstates: 1e-08}
  kpts: [5 6 1]
  mode: {ecut: 500.0,
         gammacentered: False,
         name: pw}
  occupations: {name: fermi-dirac,
                width: 0.03}
  random: True
  xc: {backend: libvdwxc,
       libvdwxc_name: vdW-DF-cx,
       name: vdW-DF-cx,
       semilocal_xc: GGA_X_LV_RPW86+LDA_C_PW,
       setup_name: PBE,
       vdwcoef: 1.0}

System changes: positions, numbers, cell, pbc, initial_charges, initial_magmoms 

Initialize ...

Li-setup:
  name: Lithium
  id: 830b4218f175192f93f959cfc0aad614
  Z: 3
  valence: 1
  core: 2
  charge: 0.0
  file: /uls/7/gpaw-20.1.0/setups/gpaw-setups-0.9.20000/Li.PBE.gz
  compensation charges: gauss, rc=0.33, lmax=2
  cutoffs: 1.91(filt), 2.55(core),
  valence states:
                energy  radius
    2s(1.00)    -2.874   1.058
    2p(0.00)    -1.090   1.058
    *s          24.337   1.058

  Using partial waves for Li as LCAO basis

N-setup:
  name: Nitrogen
  id: f7500608b86eaa90eef8b1d9a670dc53
  Z: 7
  valence: 5
  core: 2
  charge: 0.0
  file: /uls/7/gpaw-20.1.0/setups/gpaw-setups-0.9.20000/N.PBE.gz
  compensation charges: gauss, rc=0.18, lmax=2
  cutoffs: 1.11(filt), 0.96(core),
  valence states:
                energy  radius
    2s(2.00)   -18.583   0.603
    2p(3.00)    -7.089   0.529
    *s           8.629   0.603
    *p          20.123   0.529
    *d           0.000   0.577

  Using partial waves for N as LCAO basis

Reference energy: -25283.807400

Spin-paired calculation

Occupation numbers:
  Fermi-Dirac: width=0.0300 eV

Convergence criteria:
  Maximum total energy change: 0.0005 eV / electron
  Maximum integral of absolute density change: 0.0001 electrons
  Maximum integral of absolute eigenstate change: 1e-08 eV^2
  Maximum number of iterations: 333

Symmetries present (total): 1

  ( 1  0  0)
  ( 0  1  0)
  ( 0  0  1)

30 k-points: 5 x 6 x 1 Monkhorst-Pack grid
15 k-points in the irreducible part of the Brillouin zone
       k-points in crystal coordinates                weights
   0:     0.00000000    0.08333333    0.00000000          2/30
   1:     0.00000000    0.25000000    0.00000000          2/30
   2:     0.00000000    0.41666667    0.00000000          2/30
   3:     0.20000000   -0.41666667    0.00000000          2/30
   4:     0.20000000   -0.25000000    0.00000000          2/30
   5:     0.20000000   -0.08333333    0.00000000          2/30
   6:     0.20000000    0.08333333    0.00000000          2/30
   7:     0.20000000    0.25000000    0.00000000          2/30
   8:     0.20000000    0.41666667    0.00000000          2/30
   9:     0.40000000   -0.41666667    0.00000000          2/30
          ...
  14:     0.40000000    0.41666667    0.00000000          2/30

Wave functions: Plane wave expansion
  Cutoff energy: 500.000 eV
  Number of coefficients (min, max): 32335, 32478
  Pulay-stress correction: 0.000000 eV/Ang^3 (de/decut=0.000000)
  Using FFTW library
  ScaLapack parameters: grid=1x1, blocksize=None
  Wavefunction extrapolation:
    Improved wavefunction reuse through dual PAW basis 

Eigensolver
   Davidson(niter=2, smin=None, normalize=True) 

Densities:
  Coarse grid: 40*32*160 grid
  Fine grid: 80*64*320 grid
  Total Charge: 0.000000 

Density mixing:
  Method: separate
  Backend: pulay
  Linear mixing parameter: 0.05
  Mixing with 5 old densities
  Damping of long wave oscillations: 50 

Hamiltonian:
  XC and Coulomb potentials evaluated on a 80*64*320 grid
  Using the vdW-DF-cx Exchange-Correlation functional
 

XC parameters: vdW-DF-cx with libvdwxc
  Mode: mpi with 32 cores
  Semilocal: GGA_X_LV_RPW86+LDA_C_PW with 2 nearest neighbor stencil
  Local blocksize: 3 x 64 x 320
  PAW datasets: PBE

Memory estimate:
  Process memory now: 214.20 MiB
  Calculator: 106.40 MiB
    Density: 24.81 MiB
      Arrays: 10.16 MiB
      Localized functions: 10.74 MiB
      Mixer: 3.91 MiB
    Hamiltonian: 6.90 MiB
      Arrays: 6.64 MiB
      XC: 0.00 MiB
      Poisson: 0.00 MiB
      vbar: 0.26 MiB
    Wavefunctions: 74.69 MiB
      Arrays psit_nG: 31.22 MiB
      Eigensolver: 34.31 MiB
      Projections: 0.08 MiB
      Projectors: 1.05 MiB
      PW-descriptor: 8.03 MiB

Total number of cores used: 32
Parallelization over k-points: 8
Domain decomposition: 1 x 1 x 4
                      2 x 2 x 8 (xc only)

Number of atoms: 49
Number of atomic orbitals: 196
Number of bands in calculation: 63
Number of valence electrons: 97
Bands to converge: occupied

... initialized

Initializing position-dependent things.

Density initialized from atomic densities
Creating initial wave functions:
  63 bands from LCAO basis set

     .----------------.  
    /|                |  
   / |                |  
  /  |                |  
 *   |                |  
 |   |                |  
 |   |                |  
 |   |                |  
 |   |                |  
 |   |                |  
 |   |                |  
 |   |                |  
 |   |                |  
 |   |                |  
 |   |                |  
 |   |                |  
 |   |                |  
 |   |                |  
 |   |                |  
 |   |                |  
 |   |                |  
 |   |                |  
 |   |                |  
 |   |                |  
 |   |                |  
 |   |             Li |  
 |   |   N  Li   N   Li  
 |   | Li       Li N  |  
 |   |Li LLi  Li Li   |  
 |   |            Li  |  
 |Li |   N Li    N    |  
 |   |      Li       Li  
 |N  | Li  N    Li    |  
 |   |Li Li   Li Li   |  
 |   |    Li      Li  |  
 |Li |   N Li    N    |  
 |  Li      Li        |  
 |N  .-Li--N----Li----.  
 |  / Li Li   Li Li  /   
 Li/      Li        /    
 |/i       Li      /     
 *----------------*      

Positions:
   0 Li     1.753389    5.061850    0.000000    ( 0.0000,  0.0000,  0.0000)
   1 Li     0.000000    2.024928    0.000000    ( 0.0000,  0.0000,  0.0000)
   2 Li     3.506756    2.024928    0.000000    ( 0.0000,  0.0000,  0.0000)
   3 Li     5.260124    5.061850    0.000000    ( 0.0000,  0.0000,  0.0000)
   4 Li     1.753389    3.037256    1.946139    ( 0.0000,  0.0000,  0.0000)
   5 Li     0.000000    0.000334    1.946139    ( 0.0000,  0.0000,  0.0000)
   6 Li     3.506756    0.000334    1.946139    ( 0.0000,  0.0000,  0.0000)
   7 Li     5.260124    3.037256    1.946139    ( 0.0000,  0.0000,  0.0000)
   8 Li     1.753367    1.012631    1.946139    ( 0.0000,  0.0000,  0.0000)
   9 Li     0.000000    4.049553    1.946139    ( 0.0000,  0.0000,  0.0000)
  10 Li     3.506735    4.049553    1.946139    ( 0.0000,  0.0000,  0.0000)
  11 Li     5.260103    1.012631    1.946139    ( 0.0000,  0.0000,  0.0000)
  12 Li     1.753389    5.061850    3.920419    ( 0.0000,  0.0000,  0.0000)
  13 Li     0.000000    2.024928    3.920419    ( 0.0000,  0.0000,  0.0000)
  14 Li     3.506756    2.024928    3.920419    ( 0.0000,  0.0000,  0.0000)
  15 Li     5.260124    5.061850    3.920419    ( 0.0000,  0.0000,  0.0000)
  16 Li     1.756645    3.072249    5.956847    ( 0.0000,  0.0000,  0.0000)
  17 Li    -0.000087    0.032989    5.937173    ( 0.0000,  0.0000,  0.0000)
  18 Li     3.506720    0.037027    5.802390    ( 0.0000,  0.0000,  0.0000)
  19 Li     5.256765    3.071606    5.961137    ( 0.0000,  0.0000,  0.0000)
  20 Li     1.756090    1.043788    5.966092    ( 0.0000,  0.0000,  0.0000)
  21 Li    -0.000072    4.086475    5.922318    ( 0.0000,  0.0000,  0.0000)
  22 Li     3.506718    4.077917    5.800655    ( 0.0000,  0.0000,  0.0000)
  23 Li     5.257318    1.044371    5.970621    ( 0.0000,  0.0000,  0.0000)
  24 Li     1.933261    5.087260    7.871540    ( 0.0000,  0.0000,  0.0000)
  25 Li     0.007567    2.093058    7.909969    ( 0.0000,  0.0000,  0.0000)
  26 Li     3.500033    2.057201    7.848932    ( 0.0000,  0.0000,  0.0000)
  27 Li     5.079319    5.086865    7.859649    ( 0.0000,  0.0000,  0.0000)
  28 Li     1.769819    3.098901    9.832550    ( 0.0000,  0.0000,  0.0000)
  29 Li    -0.001642    0.027094    9.802698    ( 0.0000,  0.0000,  0.0000)
  30 Li     3.508236    0.062602   10.315307    ( 0.0000,  0.0000,  0.0000)
  31 Li     5.241739    3.098622    9.815571    ( 0.0000,  0.0000,  0.0000)
  32 Li     1.776695    1.036765    9.801709    ( 0.0000,  0.0000,  0.0000)
  33 Li    -0.002014    4.118300    9.916536    ( 0.0000,  0.0000,  0.0000)
  34 Li     3.507793    4.082454   10.245676    ( 0.0000,  0.0000,  0.0000)
  35 Li     5.234638    1.036967    9.783549    ( 0.0000,  0.0000,  0.0000)
  36 N      1.753389    5.061910    1.929076    ( 0.0000,  0.0000,  0.0000)
  37 N      0.000000    2.024989    1.929076    ( 0.0000,  0.0000,  0.0000)
  38 N      3.506756    2.024989    1.929076    ( 0.0000,  0.0000,  0.0000)
  39 N      5.260124    5.061910    1.929076    ( 0.0000,  0.0000,  0.0000)
  40 N      1.769883    5.097398    5.866423    ( 0.0000,  0.0000,  0.0000)
  41 N      0.000528    2.063101    5.904032    ( 0.0000,  0.0000,  0.0000)
  42 N      3.506277    2.060744    5.876599    ( 0.0000,  0.0000,  0.0000)
  43 N      5.243616    5.097399    5.863736    ( 0.0000,  0.0000,  0.0000)
  44 N      1.775180    5.110904    9.817276    ( 0.0000,  0.0000,  0.0000)
  45 N     -0.001133    2.071675    9.885302    ( 0.0000,  0.0000,  0.0000)
  46 N      3.505445    2.072118    9.768711    ( 0.0000,  0.0000,  0.0000)
  47 N      5.236124    5.110866    9.797749    ( 0.0000,  0.0000,  0.0000)
  48 Li     7.007670    1.997810   11.759479    ( 0.0000,  0.0000,  0.0000)

Unit cell:
           periodic     x           y           z      points  spacing
  1. axis:    yes    7.013470    0.000000    0.000000    40     0.1753
  2. axis:    yes    0.000000    6.073843    0.000000    32     0.1898
  3. axis:    yes    0.000000    0.000000   29.936001   160     0.1871

  Lengths:   7.013470   6.073843  29.936001
  Angles:   90.000000  90.000000  90.000000

Effective grid spacing dv^(1/3) = 0.1840

                     log10-error:    total        iterations:
           time      wfs    density  energy       fermi  poisson
iter:   1  10:10:06                -187.095113    3             
iter:   2  10:10:17  -0.99  -0.50  -176.926370    31            
iter:   3  10:10:28  -0.38  -0.56  -179.474894    37            
iter:   4  10:10:39  -1.94  -0.60  -166.395194    33            
iter:   5  10:10:50  -2.84  -0.67  -165.379306    3             
iter:   6  10:11:01  -2.21  -0.68  -158.520854    34            
iter:   7  10:11:12  -1.67  -0.82  -156.943577    33            
iter:   8  10:11:23  -1.54  -0.90  -156.560354    35            
iter:   9  10:11:34  -1.89  -0.92  -156.389750    4             
iter:  10  10:11:45  -1.65  -1.06  -156.206294    33            
iter:  11  10:11:56  -2.07  -1.40  -155.092654    4             
iter:  12  10:12:07  -3.13  -1.45  -154.849853    4             
iter:  13  10:12:18  -3.25  -1.62  -154.759091    4             
iter:  14  10:12:29  -3.16  -1.77  -154.934919    4             
iter:  15  10:12:40  -3.15  -1.64  -154.805337    33            
iter:  16  10:12:51  -4.00  -1.80  -154.765961    4             
iter:  17  10:13:03  -4.49  -2.08  -154.764694    4             
iter:  18  10:13:14  -3.75  -2.17  -154.747208    4             
iter:  19  10:13:25  -4.32  -2.39  -154.744134    4             
iter:  20  10:13:36  -4.28  -2.46  -154.738809    3             
iter:  21  10:13:47  -5.29  -2.49  -154.737823    2             
iter:  22  10:13:58  -5.67  -2.57  -154.737580    2             
iter:  23  10:14:09  -4.60  -2.60  -154.739816    3             
iter:  24  10:14:20  -5.13  -2.75  -154.739236    3             
iter:  25  10:14:31  -5.94  -2.92  -154.738190    3             
iter:  26  10:14:42  -5.95  -3.10  -154.737763    3             
iter:  27  10:14:53  -5.46  -3.12  -154.738541    3             
iter:  28  10:15:04  -5.78  -3.12  -154.737954    3             
iter:  29  10:15:15  -6.42  -3.36  -154.737933    2             
iter:  30  10:15:26  -6.78  -3.44  -154.738054    2             
iter:  31  10:15:37  -7.31  -3.68  -154.738100    2             
iter:  32  10:15:48  -7.08  -3.82  -154.738089    2             
iter:  33  10:15:59  -7.82  -3.98  -154.738075    2             
iter:  34  10:16:10  -7.95  -4.00  -154.738080    2             
iter:  35  10:16:21  -7.97  -4.14  -154.738089    2             
iter:  36  10:16:33  -8.64  -4.22  -154.738087    2             

Converged after 36 iterations.

Dipole moment: (0.071691, -2.341402, 5.716478) |e|*Ang

Energy contributions relative to reference atoms: (reference = -25283.807400)

Kinetic:       +179.404897
Potential:     -130.537574
External:        +0.000000
XC:            -202.569412
Entropy (-ST):   -0.022638
Local:           -1.024678
--------------------------
Free energy:   -154.749406
Extrapolated:  -154.738087

Non-local vdW-DF-cx correlation energy: 15.305596
Semilocal GGA_X_LV_RPW86+LDA_C_PW energy: -1089.145634
(Not including atomic contributions)
Fermi level: -0.95034

Showing only first 2 kpts
 Kpt  Band  Eigenvalues  Occupancy
  0    46     -1.21933    0.13332
  0    47     -0.85374    0.00512
  0    48     -0.76027    0.00024
  0    49     -0.26632    0.00000

  1    46     -1.31276    0.13333
  1    47     -1.15927    0.13321
  1    48     -0.89988    0.02091
  1    49     -0.30757    0.00000


No gap

Forces in eV/Ang:
  0 Li    0.00035    0.00003   -0.10471
  1 Li    0.00004    0.00003   -0.10404
  2 Li   -0.00004   -0.00002   -0.10426
  3 Li   -0.00037    0.00002   -0.10451
  4 Li    0.00168    0.00308    0.02829
  5 Li   -0.00012    0.00075    0.02663
  6 Li    0.00012   -0.00073    0.02776
  7 Li   -0.00194    0.00349    0.02842
  8 Li    0.00200   -0.00333    0.02877
  9 Li   -0.00002   -0.00140    0.02593
 10 Li    0.00039    0.00012    0.02747
 11 Li   -0.00182   -0.00366    0.02894
 12 Li   -0.08507    0.03198    0.09393
 13 Li   -0.00286    0.01780    0.30732
 14 Li    0.00285    0.02694    0.13947
 15 Li    0.08511    0.03167    0.08491
 16 Li   -0.02245   -0.00203   -0.09601
 17 Li    0.00013   -0.03224   -0.03459
 18 Li    0.00012    0.03002   -0.03423
 19 Li    0.02264   -0.00167   -0.09985
 20 Li   -0.02278    0.00432   -0.09438
 21 Li   -0.00005    0.03607   -0.04222
 22 Li   -0.00005   -0.02675   -0.02639
 23 Li    0.02261    0.00404   -0.09804
 24 Li   -0.06117    0.00487    0.11025
 25 Li   -0.00413    0.01446   -0.02223
 26 Li    0.00304    0.01023    0.08289
 27 Li    0.06530    0.00471    0.12186
 28 Li    0.11020   -0.02804   -0.08086
 29 Li    0.00213    0.03800    0.05095
 30 Li    0.00152    0.08439    0.01740
 31 Li   -0.11134   -0.02836   -0.08193
 32 Li    0.12969    0.03274   -0.08269
 33 Li    0.00190   -0.03429    0.12520
 34 Li    0.00134   -0.04429   -0.01563
 35 Li   -0.13086    0.03278   -0.08247
 36 N    -0.00038    0.01526   -0.13352
 37 N     0.00032    0.01676   -0.12639
 38 N    -0.00033    0.01651   -0.13875
 39 N     0.00013    0.01527   -0.14055
 40 N    -0.05043   -0.00710   -0.00665
 41 N    -0.00060   -0.00819    0.15036
 42 N     0.00056   -0.00994   -0.06089
 43 N     0.05056   -0.00708    0.00113
 44 N    -0.09799   -0.00409    0.11208
 45 N     0.00115   -0.00799    0.00297
 46 N     0.00030    0.00752    0.03225
 47 N     0.09699   -0.00442    0.10470
 48 Li   -0.00823   -0.03817   -0.06571

System changes: positions 

Initializing position-dependent things.

Density initialized from wave functions
     .----------------.  
    /|                |  
   / |                |  
  /  |                |  
 *   |                |  
 |   |                |  
 |   |                |  
 |   |                |  
 |   |                |  
 |   |                |  
 |   |                |  
 |   |                |  
 |   |                |  
 |   |                |  
 |   |                |  
 |   |                |  
 |   |                |  
 |   |                |  
 |   |                |  
 |   |                |  
 |   |                |  
 |   |                |  
 |   |                |  
 |   |                |  
 |   |                |  
 |   |   N         Li |  
 |   |      Li   N   Li  
 |   | Li       Li N  |  
 |   |Li LLi  Li Li   |  
 |   |            Li  |  
 |Li |   N Li    N    |  
 |   |      Li       Li  
 |N  | Li  N    Li    |  
 |   |Li Li   Li Li   |  
 |   |    Li      Li  |  
 |Li |   N Li    N    |  
 |  Li      Li        |  
 |N  .-Li--N----Li----.  
 |  / Li Li   Li Li  /   
 Li/      Li        /    
 |/i       Li      /     
 *----------------*      

Positions:
   0 Li     1.753389    5.061850    0.000000    ( 0.0000,  0.0000,  0.0000)
   1 Li     0.000000    2.024928    0.000000    ( 0.0000,  0.0000,  0.0000)
   2 Li     3.506756    2.024928    0.000000    ( 0.0000,  0.0000,  0.0000)
   3 Li     5.260124    5.061850    0.000000    ( 0.0000,  0.0000,  0.0000)
   4 Li     1.753389    3.037256    1.946139    ( 0.0000,  0.0000,  0.0000)
   5 Li     0.000000    0.000334    1.946139    ( 0.0000,  0.0000,  0.0000)
   6 Li     3.506756    0.000334    1.946139    ( 0.0000,  0.0000,  0.0000)
   7 Li     5.260124    3.037256    1.946139    ( 0.0000,  0.0000,  0.0000)
   8 Li     1.753367    1.012631    1.946139    ( 0.0000,  0.0000,  0.0000)
   9 Li     0.000000    4.049553    1.946139    ( 0.0000,  0.0000,  0.0000)
  10 Li     3.506735    4.049553    1.946139    ( 0.0000,  0.0000,  0.0000)
  11 Li     5.260103    1.012631    1.946139    ( 0.0000,  0.0000,  0.0000)
  12 Li     1.753389    5.061850    3.920419    ( 0.0000,  0.0000,  0.0000)
  13 Li     0.000000    2.024928    3.920419    ( 0.0000,  0.0000,  0.0000)
  14 Li     3.506756    2.024928    3.920419    ( 0.0000,  0.0000,  0.0000)
  15 Li     5.260124    5.061850    3.920419    ( 0.0000,  0.0000,  0.0000)
  16 Li     1.756324    3.072220    5.955476    ( 0.0000,  0.0000,  0.0000)
  17 Li    -0.000085    0.032529    5.936679    ( 0.0000,  0.0000,  0.0000)
  18 Li     3.506722    0.037456    5.801901    ( 0.0000,  0.0000,  0.0000)
  19 Li     5.257088    3.071582    5.959711    ( 0.0000,  0.0000,  0.0000)
  20 Li     1.755764    1.043850    5.964744    ( 0.0000,  0.0000,  0.0000)
  21 Li    -0.000073    4.086990    5.921715    ( 0.0000,  0.0000,  0.0000)
  22 Li     3.506717    4.077535    5.800278    ( 0.0000,  0.0000,  0.0000)
  23 Li     5.257641    1.044429    5.969220    ( 0.0000,  0.0000,  0.0000)
  24 Li     1.932387    5.087330    7.873115    ( 0.0000,  0.0000,  0.0000)
  25 Li     0.007508    2.093265    7.909652    ( 0.0000,  0.0000,  0.0000)
  26 Li     3.500077    2.057347    7.850117    ( 0.0000,  0.0000,  0.0000)
  27 Li     5.080252    5.086933    7.861390    ( 0.0000,  0.0000,  0.0000)
  28 Li     1.771393    3.098500    9.831395    ( 0.0000,  0.0000,  0.0000)
  29 Li    -0.001611    0.027637    9.803426    ( 0.0000,  0.0000,  0.0000)
  30 Li     3.508258    0.063808   10.315556    ( 0.0000,  0.0000,  0.0000)
  31 Li     5.240149    3.098217    9.814401    ( 0.0000,  0.0000,  0.0000)
  32 Li     1.778547    1.037233    9.800528    ( 0.0000,  0.0000,  0.0000)
  33 Li    -0.001987    4.117810    9.918325    ( 0.0000,  0.0000,  0.0000)
  34 Li     3.507812    4.081821   10.245452    ( 0.0000,  0.0000,  0.0000)
  35 Li     5.232769    1.037435    9.782371    ( 0.0000,  0.0000,  0.0000)
  36 N      1.753389    5.061910    1.929076    ( 0.0000,  0.0000,  0.0000)
  37 N      0.000000    2.024989    1.929076    ( 0.0000,  0.0000,  0.0000)
  38 N      3.506756    2.024989    1.929076    ( 0.0000,  0.0000,  0.0000)
  39 N      5.260124    5.061910    1.929076    ( 0.0000,  0.0000,  0.0000)
  40 N      1.769162    5.097296    5.866328    ( 0.0000,  0.0000,  0.0000)
  41 N      0.000519    2.062983    5.906180    ( 0.0000,  0.0000,  0.0000)
  42 N      3.506285    2.060602    5.875730    ( 0.0000,  0.0000,  0.0000)
  43 N      5.244339    5.097298    5.863753    ( 0.0000,  0.0000,  0.0000)
  44 N      1.773780    5.110845    9.818877    ( 0.0000,  0.0000,  0.0000)
  45 N     -0.001116    2.071561    9.885344    ( 0.0000,  0.0000,  0.0000)
  46 N      3.505450    2.072226    9.769172    ( 0.0000,  0.0000,  0.0000)
  47 N      5.237510    5.110803    9.799245    ( 0.0000,  0.0000,  0.0000)
  48 Li     7.007552    1.997264   11.758541    ( 0.0000,  0.0000,  0.0000)

Unit cell:
           periodic     x           y           z      points  spacing
  1. axis:    yes    7.013470    0.000000    0.000000    40     0.1753
  2. axis:    yes    0.000000    6.073843    0.000000    32     0.1898
  3. axis:    yes    0.000000    0.000000   29.936001   160     0.1871

  Lengths:   7.013470   6.073843  29.936001
  Angles:   90.000000  90.000000  90.000000

Effective grid spacing dv^(1/3) = 0.1840

                     log10-error:    total        iterations:
           time      wfs    density  energy       fermi  poisson
iter:   1  10:16:56  -4.58         -154.742751    3             
iter:   2  10:17:07  -5.66  -3.24  -154.741868    3             
iter:   3  10:17:18  -6.64  -3.31  -154.742091    2             
iter:   4  10:17:30  -5.77  -3.43  -154.741916    2             
iter:   5  10:17:41  -7.10  -3.64  -154.742011    2             
iter:   6  10:17:53  -6.72  -3.77  -154.742032    2             
iter:   7  10:18:04  -6.60  -4.02  -154.742057    2             
iter:   8  10:18:15  -7.61  -3.98  -154.742059    2             
iter:   9  10:18:27  -7.44  -4.19  -154.742055    2             
iter:  10  10:18:38  -8.26  -4.41  -154.742061    2             

Converged after 10 iterations.

Dipole moment: (0.072410, -2.354142, 5.721757) |e|*Ang

Energy contributions relative to reference atoms: (reference = -25283.807400)

Kinetic:       +179.406554
Potential:     -130.531459
External:        +0.000000
XC:            -202.574469
Entropy (-ST):   -0.022645
Local:           -1.031365
--------------------------
Free energy:   -154.753384
Extrapolated:  -154.742061

Non-local vdW-DF-cx correlation energy: 15.305950
Semilocal GGA_X_LV_RPW86+LDA_C_PW energy: -1089.145294
(Not including atomic contributions)
Fermi level: -0.95140

Showing only first 2 kpts
 Kpt  Band  Eigenvalues  Occupancy
  0    46     -1.22172    0.13332
  0    47     -0.85536    0.00521
  0    48     -0.76098    0.00023
  0    49     -0.26786    0.00000

  1    46     -1.31164    0.13333
  1    47     -1.16104    0.13321
  1    48     -0.90054    0.02068
  1    49     -0.30874    0.00000


No gap

Forces in eV/Ang:
  0 Li    0.00028    0.00004   -0.10369
  1 Li    0.00004    0.00003   -0.10310
  2 Li   -0.00003   -0.00002   -0.10322
  3 Li   -0.00031    0.00003   -0.10349
  4 Li    0.00181    0.00311    0.02802
  5 Li   -0.00011    0.00052    0.02637
  6 Li    0.00011   -0.00067    0.02756
  7 Li   -0.00208    0.00350    0.02814
  8 Li    0.00213   -0.00335    0.02850
  9 Li   -0.00002   -0.00116    0.02565
 10 Li    0.00038    0.00006    0.02728
 11 Li   -0.00195   -0.00367    0.02867
 12 Li   -0.08470    0.03210    0.09283
 13 Li   -0.00282    0.01784    0.31194
 14 Li    0.00281    0.02699    0.13515
 15 Li    0.08473    0.03179    0.08425
 16 Li   -0.02100   -0.00195   -0.09055
 17 Li    0.00011   -0.02674   -0.02944
 18 Li    0.00015    0.02324   -0.02951
 19 Li    0.02115   -0.00153   -0.09425
 20 Li   -0.02125    0.00325   -0.08891
 21 Li   -0.00003    0.02946   -0.03710
 22 Li    0.00000   -0.02110   -0.02173
 23 Li    0.02111    0.00291   -0.09243
 24 Li   -0.06107    0.00467    0.10075
 25 Li   -0.00405    0.01436   -0.01581
 26 Li    0.00287    0.01022    0.06567
 27 Li    0.06503    0.00451    0.11038
 28 Li    0.09339   -0.02310   -0.07838
 29 Li    0.00179    0.03957    0.05230
 30 Li    0.00139    0.07026    0.02364
 31 Li   -0.09416   -0.02323   -0.07951
 32 Li    0.11137    0.02685   -0.08082
 33 Li    0.00154   -0.03604    0.12694
 34 Li    0.00121   -0.03194   -0.00968
 35 Li   -0.11219    0.02669   -0.08071
 36 N    -0.00058    0.01527   -0.13334
 37 N     0.00030    0.01682   -0.12526
 38 N    -0.00031    0.01650   -0.13916
 39 N     0.00032    0.01529   -0.14029
 40 N    -0.03990   -0.00614   -0.00655
 41 N    -0.00052   -0.00691    0.12412
 42 N     0.00045   -0.00835   -0.05380
 43 N     0.04000   -0.00617    0.00050
 44 N    -0.07579   -0.00213    0.10847
 45 N     0.00086   -0.00660   -0.00583
 46 N     0.00038    0.00757    0.02617
 47 N     0.07547   -0.00238    0.10311
 48 Li   -0.00814   -0.03879   -0.06119

System changes: positions 

Initializing position-dependent things.

Density initialized from wave functions
     .----------------.  
    /|                |  
   / |                |  
  /  |                |  
 *   |                |  
 |   |                |  
 |   |                |  
 |   |                |  
 |   |                |  
 |   |                |  
 |   |                |  
 |   |                |  
 |   |                |  
 |   |                |  
 |   |                |  
 |   |                |  
 |   |                |  
 |   |                |  
 |   |                |  
 |   |                |  
 |   |                |  
 |   |                |  
 |   |                |  
 |   |                |  
 |   |                |  
 |   |   N         Li |  
 |   |      Li   N   Li  
 |   | Li       Li N  |  
 |   |Li LLi  Li Li   |  
 |   |            Li  |  
 |Li |   N Li    N    |  
 |   |      Li       Li  
 |N  | Li  N    Li    |  
 |   |Li Li   Li Li   |  
 |   |    Li      Li  |  
 |Li |   N Li    N    |  
 |  Li      Li        |  
 |N  .-Li--N----Li----.  
 |  / Li Li   Li Li  /   
 Li/      Li        /    
 |/i       Li      /     
 *----------------*      

Positions:
   0 Li     1.753389    5.061850    0.000000    ( 0.0000,  0.0000,  0.0000)
   1 Li     0.000000    2.024928    0.000000    ( 0.0000,  0.0000,  0.0000)
   2 Li     3.506756    2.024928    0.000000    ( 0.0000,  0.0000,  0.0000)
   3 Li     5.260124    5.061850    0.000000    ( 0.0000,  0.0000,  0.0000)
   4 Li     1.753389    3.037256    1.946139    ( 0.0000,  0.0000,  0.0000)
   5 Li     0.000000    0.000334    1.946139    ( 0.0000,  0.0000,  0.0000)
   6 Li     3.506756    0.000334    1.946139    ( 0.0000,  0.0000,  0.0000)
   7 Li     5.260124    3.037256    1.946139    ( 0.0000,  0.0000,  0.0000)
   8 Li     1.753367    1.012631    1.946139    ( 0.0000,  0.0000,  0.0000)
   9 Li     0.000000    4.049553    1.946139    ( 0.0000,  0.0000,  0.0000)
  10 Li     3.506735    4.049553    1.946139    ( 0.0000,  0.0000,  0.0000)
  11 Li     5.260103    1.012631    1.946139    ( 0.0000,  0.0000,  0.0000)
  12 Li     1.753389    5.061850    3.920419    ( 0.0000,  0.0000,  0.0000)
  13 Li     0.000000    2.024928    3.920419    ( 0.0000,  0.0000,  0.0000)
  14 Li     3.506756    2.024928    3.920419    ( 0.0000,  0.0000,  0.0000)
  15 Li     5.260124    5.061850    3.920419    ( 0.0000,  0.0000,  0.0000)
  16 Li     1.753202    3.071930    5.942020    ( 0.0000,  0.0000,  0.0000)
  17 Li    -0.000068    0.028523    5.932275    ( 0.0000,  0.0000,  0.0000)
  18 Li     3.506743    0.040954    5.797492    ( 0.0000,  0.0000,  0.0000)
  19 Li     5.260232    3.071354    5.945707    ( 0.0000,  0.0000,  0.0000)
  20 Li     1.752604    1.044340    5.951532    ( 0.0000,  0.0000,  0.0000)
  21 Li    -0.000077    4.091408    5.916178    ( 0.0000,  0.0000,  0.0000)
  22 Li     3.506717    4.074363    5.797021    ( 0.0000,  0.0000,  0.0000)
  23 Li     5.260780    1.044870    5.955486    ( 0.0000,  0.0000,  0.0000)
  24 Li     1.923343    5.088023    7.888114    ( 0.0000,  0.0000,  0.0000)
  25 Li     0.006908    2.095392    7.907257    ( 0.0000,  0.0000,  0.0000)
  26 Li     3.500504    2.058860    7.859986    ( 0.0000,  0.0000,  0.0000)
  27 Li     5.089883    5.087602    7.877832    ( 0.0000,  0.0000,  0.0000)
  28 Li     1.785365    3.095038    9.819768    ( 0.0000,  0.0000,  0.0000)
  29 Li    -0.001343    0.033483    9.811159    ( 0.0000,  0.0000,  0.0000)
  30 Li     3.508465    0.074331   10.319004    ( 0.0000,  0.0000,  0.0000)
  31 Li     5.226060    3.094733    9.802606    ( 0.0000,  0.0000,  0.0000)
  32 Li     1.795194    1.041259    9.788543    ( 0.0000,  0.0000,  0.0000)
  33 Li    -0.001756    4.112488    9.937107    ( 0.0000,  0.0000,  0.0000)
  34 Li     3.507993    4.076987   10.243969    ( 0.0000,  0.0000,  0.0000)
  35 Li     5.215998    1.041439    9.770404    ( 0.0000,  0.0000,  0.0000)
  36 N      1.753389    5.061910    1.929076    ( 0.0000,  0.0000,  0.0000)
  37 N      0.000000    2.024989    1.929076    ( 0.0000,  0.0000,  0.0000)
  38 N      3.506756    2.024989    1.929076    ( 0.0000,  0.0000,  0.0000)
  39 N      5.260124    5.061910    1.929076    ( 0.0000,  0.0000,  0.0000)
  40 N      1.763165    5.096378    5.865357    ( 0.0000,  0.0000,  0.0000)
  41 N      0.000442    2.061949    5.924781    ( 0.0000,  0.0000,  0.0000)
  42 N      3.506353    2.059352    5.867704    ( 0.0000,  0.0000,  0.0000)
  43 N      5.250351    5.096377    5.863832    ( 0.0000,  0.0000,  0.0000)
  44 N      1.762370    5.110513    9.834969    ( 0.0000,  0.0000,  0.0000)
  45 N     -0.000987    2.070572    9.884555    ( 0.0000,  0.0000,  0.0000)
  46 N      3.505506    2.073347    9.773099    ( 0.0000,  0.0000,  0.0000)
  47 N      5.248867    5.110433    9.814527    ( 0.0000,  0.0000,  0.0000)
  48 Li     7.006346    1.991525   11.749442    ( 0.0000,  0.0000,  0.0000)

Unit cell:
           periodic     x           y           z      points  spacing
  1. axis:    yes    7.013470    0.000000    0.000000    40     0.1753
  2. axis:    yes    0.000000    6.073843    0.000000    32     0.1898
  3. axis:    yes    0.000000    0.000000   29.936001   160     0.1871

  Lengths:   7.013470   6.073843  29.936001
  Angles:   90.000000  90.000000  90.000000

Effective grid spacing dv^(1/3) = 0.1840

                     log10-error:    total        iterations:
           time      wfs    density  energy       fermi  poisson
iter:   1  10:19:01  -2.66         -154.780173    5             
iter:   2  10:19:13  -3.78  -2.29  -154.768075    3             
iter:   3  10:19:24  -4.75  -2.41  -154.767933    3             
iter:   4  10:19:36  -3.95  -2.52  -154.765183    3             
iter:   5  10:19:47  -4.97  -2.40  -154.763147    3             
iter:   6  10:19:58  -5.05  -2.87  -154.764765    3             
iter:   7  10:20:10  -4.72  -2.42  -154.763873    3             
iter:   8  10:20:21  -5.54  -2.95  -154.763838    2             
iter:   9  10:20:33  -5.12  -2.99  -154.762372    3             
iter:  10  10:20:44  -6.60  -3.38  -154.762555    2             
iter:  11  10:20:56  -5.98  -3.53  -154.762414    2             
iter:  12  10:21:07  -7.29  -3.53  -154.762466    2             
iter:  13  10:21:18  -5.90  -3.59  -154.762496    2             
iter:  14  10:21:30  -7.24  -3.77  -154.762510    2             
iter:  15  10:21:41  -6.76  -3.98  -154.762520    2             
iter:  16  10:21:53  -6.90  -4.00  -154.762526    2             
iter:  17  10:22:04  -7.60  -4.30  -154.762522    2             
iter:  18  10:22:16  -7.76  -4.30  -154.762525    2             
iter:  19  10:22:27  -7.49  -4.32  -154.762519    1             
iter:  20  10:22:38  -8.78  -4.72  -154.762530    2             

Converged after 20 iterations.

Dipole moment: (0.082517, -2.475589, 5.709500) |e|*Ang

Energy contributions relative to reference atoms: (reference = -25283.807400)

Kinetic:       +179.539811
Potential:     -130.655885
External:        +0.000000
XC:            -202.603563
Entropy (-ST):   -0.022859
Local:           -1.031464
--------------------------
Free energy:   -154.773960
Extrapolated:  -154.762530

Non-local vdW-DF-cx correlation energy: 15.307610
Semilocal GGA_X_LV_RPW86+LDA_C_PW energy: -1089.165399
(Not including atomic contributions)
Fermi level: -0.96199

Showing only first 2 kpts
 Kpt  Band  Eigenvalues  Occupancy
  0    46     -1.24345    0.13332
  0    47     -0.86999    0.00593
  0    48     -0.76848    0.00021
  0    49     -0.28406    0.00000

  1    46     -1.30194    0.13333
  1    47     -1.17722    0.13323
  1    48     -0.90723    0.01851
  1    49     -0.32110    0.00000


No gap

Forces in eV/Ang:
  0 Li    0.00036    0.00004   -0.10433
  1 Li    0.00003    0.00002   -0.10412
  2 Li   -0.00003   -0.00001   -0.10374
  3 Li   -0.00039    0.00003   -0.10416
  4 Li    0.00356    0.00376    0.02862
  5 Li   -0.00005   -0.00117    0.02739
  6 Li    0.00005   -0.00019    0.02898
  7 Li   -0.00382    0.00405    0.02869
  8 Li    0.00387   -0.00397    0.02918
  9 Li    0.00005    0.00055    0.02644
 10 Li    0.00031   -0.00041    0.02886
 11 Li   -0.00369   -0.00419    0.02929
 12 Li   -0.08338    0.03305    0.08051
 13 Li   -0.00247    0.01771    0.34392
 14 Li    0.00243    0.02733    0.09265
 15 Li    0.08338    0.03285    0.07573
 16 Li   -0.00870   -0.00099   -0.04129
 17 Li   -0.00008    0.01623    0.01643
 18 Li    0.00033   -0.02830    0.00956
 19 Li    0.00857   -0.00026   -0.04339
 20 Li   -0.00823   -0.00612   -0.03936
 21 Li    0.00006   -0.02255    0.00861
 22 Li    0.00045    0.02101    0.01625
 23 Li    0.00837   -0.00677   -0.04136
 24 Li   -0.06447    0.00241    0.01911
 25 Li   -0.00325    0.01395    0.03594
 26 Li    0.00136    0.00950   -0.08131
 27 Li    0.06690    0.00226    0.01269
 28 Li   -0.05221    0.02142   -0.04835
 29 Li   -0.00093    0.03759    0.06627
 30 Li    0.00035   -0.04486    0.09420
 31 Li    0.05449    0.02269   -0.04999
 32 Li   -0.04794   -0.02446   -0.05693
 33 Li   -0.00131   -0.03697    0.14268
 34 Li    0.00026    0.06603    0.05826
 35 Li    0.04993   -0.02606   -0.05783
 36 N    -0.00106    0.01514   -0.13244
 37 N     0.00025    0.01730   -0.11634
 38 N    -0.00026    0.01638   -0.14121
 39 N     0.00079    0.01521   -0.13641
 40 N     0.03532    0.00169   -0.00998
 41 N     0.00005    0.00273   -0.07546
 42 N    -0.00024    0.00445   -0.01782
 43 N    -0.03539    0.00162   -0.01679
 44 N     0.06755    0.01177    0.07691
 45 N    -0.00087    0.00642   -0.08240
 46 N     0.00116    0.00685   -0.01669
 47 N    -0.06417    0.01180    0.10895
 48 Li   -0.00718   -0.04549   -0.01426

System changes: positions 

Initializing position-dependent things.

Density initialized from wave functions
     .----------------.  
    /|                |  
   / |                |  
  /  |                |  
 *   |                |  
 |   |                |  
 |   |                |  
 |   |                |  
 |   |                |  
 |   |                |  
 |   |                |  
 |   |                |  
 |   |                |  
 |   |                |  
 |   |                |  
 |   |                |  
 |   |                |  
 |   |                |  
 |   |                |  
 |   |                |  
 |   |                |  
 |   |                |  
 |   |                |  
 |   |                |  
 |   |                |  
 |   |   N       N Li |  
 |   |      Li       Li  
 |   | Li       Li N  |  
 |   |Li LLi  Li Li   |  
 |   |            Li  |  
 |Li |   N Li    N    |  
 |   |      Li       Li  
 |N  | Li  N    Li    |  
 |   |Li Li   Li Li   |  
 |   |    Li      Li  |  
 |Li |   N Li    N    |  
 |  Li      Li        |  
 |N  .-Li--N----Li----.  
 |  / Li Li   Li Li  /   
 Li/      Li        /    
 |/i       Li      /     
 *----------------*      

Positions:
   0 Li     1.753389    5.061850    0.000000    ( 0.0000,  0.0000,  0.0000)
   1 Li     0.000000    2.024928    0.000000    ( 0.0000,  0.0000,  0.0000)
   2 Li     3.506756    2.024928    0.000000    ( 0.0000,  0.0000,  0.0000)
   3 Li     5.260124    5.061850    0.000000    ( 0.0000,  0.0000,  0.0000)
   4 Li     1.753389    3.037256    1.946139    ( 0.0000,  0.0000,  0.0000)
   5 Li     0.000000    0.000334    1.946139    ( 0.0000,  0.0000,  0.0000)
   6 Li     3.506756    0.000334    1.946139    ( 0.0000,  0.0000,  0.0000)
   7 Li     5.260124    3.037256    1.946139    ( 0.0000,  0.0000,  0.0000)
   8 Li     1.753367    1.012631    1.946139    ( 0.0000,  0.0000,  0.0000)
   9 Li     0.000000    4.049553    1.946139    ( 0.0000,  0.0000,  0.0000)
  10 Li     3.506735    4.049553    1.946139    ( 0.0000,  0.0000,  0.0000)
  11 Li     5.260103    1.012631    1.946139    ( 0.0000,  0.0000,  0.0000)
  12 Li     1.753389    5.061850    3.920419    ( 0.0000,  0.0000,  0.0000)
  13 Li     0.000000    2.024928    3.920419    ( 0.0000,  0.0000,  0.0000)
  14 Li     3.506756    2.024928    3.920419    ( 0.0000,  0.0000,  0.0000)
  15 Li     5.260124    5.061850    3.920419    ( 0.0000,  0.0000,  0.0000)
  16 Li     1.752392    3.071852    5.938473    ( 0.0000,  0.0000,  0.0000)
  17 Li    -0.000066    0.027908    5.931584    ( 0.0000,  0.0000,  0.0000)
  18 Li     3.506753    0.041272    5.796688    ( 0.0000,  0.0000,  0.0000)
  19 Li     5.261045    3.071301    5.942009    ( 0.0000,  0.0000,  0.0000)
  20 Li     1.751794    1.044350    5.948067    ( 0.0000,  0.0000,  0.0000)
  21 Li    -0.000078    4.092014    5.915119    ( 0.0000,  0.0000,  0.0000)
  22 Li     3.506724    4.074001    5.796570    ( 0.0000,  0.0000,  0.0000)
  23 Li     5.261588    1.044859    5.951877    ( 0.0000,  0.0000,  0.0000)
  24 Li     1.920379    5.088210    7.891650    ( 0.0000,  0.0000,  0.0000)
  25 Li     0.006728    2.096070    7.907299    ( 0.0000,  0.0000,  0.0000)
  26 Li     3.500617    2.059335    7.860846    ( 0.0000,  0.0000,  0.0000)
  27 Li     5.093011    5.087781    7.881580    ( 0.0000,  0.0000,  0.0000)
  28 Li     1.787562    3.094628    9.816511    ( 0.0000,  0.0000,  0.0000)
  29 Li    -0.001300    0.035318    9.813866    ( 0.0000,  0.0000,  0.0000)
  30 Li     3.508515    0.075906   10.321236    ( 0.0000,  0.0000,  0.0000)
  31 Li     5.223873    3.094338    9.799288    ( 0.0000,  0.0000,  0.0000)
  32 Li     1.798036    1.041745    9.785074    ( 0.0000,  0.0000,  0.0000)
  33 Li    -0.001726    4.110775    9.943392    ( 0.0000,  0.0000,  0.0000)
  34 Li     3.508036    4.076968   10.244575    ( 0.0000,  0.0000,  0.0000)
  35 Li     5.213161    1.041895    9.766924    ( 0.0000,  0.0000,  0.0000)
  36 N      1.753389    5.061910    1.929076    ( 0.0000,  0.0000,  0.0000)
  37 N      0.000000    2.024989    1.929076    ( 0.0000,  0.0000,  0.0000)
  38 N      3.506756    2.024989    1.929076    ( 0.0000,  0.0000,  0.0000)
  39 N      5.260124    5.061910    1.929076    ( 0.0000,  0.0000,  0.0000)
  40 N      1.762409    5.096206    5.864987    ( 0.0000,  0.0000,  0.0000)
  41 N      0.000426    2.061767    5.927641    ( 0.0000,  0.0000,  0.0000)
  42 N      3.506364    2.059151    5.865669    ( 0.0000,  0.0000,  0.0000)
  43 N      5.251110    5.096203    5.863576    ( 0.0000,  0.0000,  0.0000)
  44 N      1.760918    5.110623    9.839644    ( 0.0000,  0.0000,  0.0000)
  45 N     -0.000972    2.070460    9.883096    ( 0.0000,  0.0000,  0.0000)
  46 N      3.505536    2.073695    9.773694    ( 0.0000,  0.0000,  0.0000)
  47 N      5.250358    5.110535    9.819547    ( 0.0000,  0.0000,  0.0000)
  48 Li     7.005974    1.989574   11.747263    ( 0.0000,  0.0000,  0.0000)

Unit cell:
           periodic     x           y           z      points  spacing
  1. axis:    yes    7.013470    0.000000    0.000000    40     0.1753
  2. axis:    yes    0.000000    6.073843    0.000000    32     0.1898
  3. axis:    yes    0.000000    0.000000   29.936001   160     0.1871

  Lengths:   7.013470   6.073843  29.936001
  Angles:   90.000000  90.000000  90.000000

Effective grid spacing dv^(1/3) = 0.1840

                     log10-error:    total        iterations:
           time      wfs    density  energy       fermi  poisson
iter:   1  10:23:01  -3.95         -154.768593    3             
iter:   2  10:23:13  -4.99  -2.82  -154.765401    3             
iter:   3  10:23:24  -6.01  -2.97  -154.765851    3             
iter:   4  10:23:35  -5.24  -3.13  -154.764935    3             
iter:   5  10:23:47  -6.07  -3.12  -154.765568    3             
iter:   6  10:23:58  -6.16  -3.56  -154.764941    3             
iter:   7  10:24:09  -6.20  -3.21  -154.765549    3             
iter:   8  10:24:21  -7.00  -3.76  -154.765533    2             
iter:   9  10:24:32  -6.56  -3.83  -154.765499    2             
iter:  10  10:24:43  -7.96  -4.10  -154.765499    2             
iter:  11  10:24:55  -7.52  -4.20  -154.765492    2             
iter:  12  10:25:06  -7.56  -4.34  -154.765511    2             
iter:  13  10:25:17  -8.43  -4.38  -154.765495    2             

Converged after 13 iterations.

Dipole moment: (0.087614, -2.500058, 5.706742) |e|*Ang

Energy contributions relative to reference atoms: (reference = -25283.807400)

Kinetic:       +179.543674
Potential:     -130.666272
External:        +0.000000
XC:            -202.600303
Entropy (-ST):   -0.022910
Local:           -1.031139
--------------------------
Free energy:   -154.776950
Extrapolated:  -154.765495

Non-local vdW-DF-cx correlation energy: 15.307795
Semilocal GGA_X_LV_RPW86+LDA_C_PW energy: -1089.162135
(Not including atomic contributions)
Fermi level: -0.96397

Showing only first 2 kpts
 Kpt  Band  Eigenvalues  Occupancy
  0    46     -1.24733    0.13332
  0    47     -0.87253    0.00604
  0    48     -0.76982    0.00021
  0    49     -0.28761    0.00000

  1    46     -1.30067    0.13333
  1    47     -1.17989    0.13323
  1    48     -0.90838    0.01807
  1    49     -0.32373    0.00000


No gap

Forces in eV/Ang:
  0 Li    0.00035    0.00005   -0.10437
  1 Li    0.00003    0.00002   -0.10426
  2 Li   -0.00003   -0.00002   -0.10373
  3 Li   -0.00038    0.00004   -0.10421
  4 Li    0.00384    0.00383    0.02889
  5 Li   -0.00003   -0.00147    0.02775
  6 Li    0.00004   -0.00002    0.02929
  7 Li   -0.00410    0.00411    0.02895
  8 Li    0.00415   -0.00404    0.02945
  9 Li    0.00006    0.00086    0.02677
 10 Li    0.00030   -0.00059    0.02923
 11 Li   -0.00397   -0.00425    0.02954
 12 Li   -0.08297    0.03323    0.07718
 13 Li   -0.00238    0.01757    0.34658
 14 Li    0.00233    0.02740    0.08183
 15 Li    0.08297    0.03305    0.07279
 16 Li   -0.00328   -0.00099   -0.03146
 17 Li   -0.00000    0.02180    0.02454
 18 Li    0.00022   -0.03388    0.01860
 19 Li    0.00312   -0.00045   -0.03338
 20 Li   -0.00265   -0.00715   -0.02943
 21 Li    0.00017   -0.02928    0.01664
 22 Li    0.00036    0.02550    0.02499
 23 Li    0.00283   -0.00764   -0.03128
 24 Li   -0.06190    0.00171    0.00321
 25 Li   -0.00282    0.01384    0.03481
 26 Li    0.00094    0.00924   -0.10339
 27 Li    0.06407    0.00160   -0.00395
 28 Li   -0.07252    0.02866   -0.04184
 29 Li   -0.00119    0.02561    0.06963
 30 Li    0.00013   -0.05605    0.10950
 31 Li    0.07513    0.02999   -0.04316
 32 Li   -0.07081   -0.03166   -0.05133
 33 Li   -0.00157   -0.02537    0.14664
 34 Li    0.00006    0.07322    0.07246
 35 Li    0.07308   -0.03330   -0.05203
 36 N    -0.00108    0.01515   -0.13041
 37 N     0.00021    0.01735   -0.11320
 38 N    -0.00023    0.01631   -0.14058
 39 N     0.00081    0.01523   -0.13357
 40 N     0.04285    0.00319   -0.00773
 41 N    -0.00000    0.00460   -0.11909
 42 N    -0.00021    0.00650   -0.01095
 43 N    -0.04283    0.00314   -0.01677
 44 N     0.08655    0.01424    0.05910
 45 N    -0.00120    0.00875   -0.08597
 46 N     0.00132    0.00737   -0.03223
 47 N    -0.08246    0.01437    0.09808
 48 Li   -0.00708   -0.04720   -0.00836

System changes: positions 

Initializing position-dependent things.

Density initialized from wave functions
     .----------------.  
    /|                |  
   / |                |  
  /  |                |  
 *   |                |  
 |   |                |  
 |   |                |  
 |   |                |  
 |   |                |  
 |   |                |  
 |   |                |  
 |   |                |  
 |   |                |  
 |   |                |  
 |   |                |  
 |   |                |  
 |   |                |  
 |   |                |  
 |   |                |  
 |   |                |  
 |   |                |  
 |   |                |  
 |   |                |  
 |   |                |  
 |   |                |  
 |   |   N       N Li |  
 |   |      Li       Li  
 |   | Li       Li N  |  
 |   |Li LLi  Li Li   |  
 |   |            Li  |  
 |Li |   N Li    N    |  
 |   |      Li       Li  
 |N  | Li  N    Li    |  
 |   |Li Li   Li Li   |  
 |   |    Li      Li  |  
 |Li |   N Li    N    |  
 |  Li      Li        |  
 |N  .-Li--N----Li----.  
 |  / Li Li   Li Li  /   
 Li/      Li        /    
 |/i       Li      /     
 *----------------*      

Positions:
   0 Li     1.753389    5.061850    0.000000    ( 0.0000,  0.0000,  0.0000)
   1 Li     0.000000    2.024928    0.000000    ( 0.0000,  0.0000,  0.0000)
   2 Li     3.506756    2.024928    0.000000    ( 0.0000,  0.0000,  0.0000)
   3 Li     5.260124    5.061850    0.000000    ( 0.0000,  0.0000,  0.0000)
   4 Li     1.753389    3.037256    1.946139    ( 0.0000,  0.0000,  0.0000)
   5 Li     0.000000    0.000334    1.946139    ( 0.0000,  0.0000,  0.0000)
   6 Li     3.506756    0.000334    1.946139    ( 0.0000,  0.0000,  0.0000)
   7 Li     5.260124    3.037256    1.946139    ( 0.0000,  0.0000,  0.0000)
   8 Li     1.753367    1.012631    1.946139    ( 0.0000,  0.0000,  0.0000)
   9 Li     0.000000    4.049553    1.946139    ( 0.0000,  0.0000,  0.0000)
  10 Li     3.506735    4.049553    1.946139    ( 0.0000,  0.0000,  0.0000)
  11 Li     5.260103    1.012631    1.946139    ( 0.0000,  0.0000,  0.0000)
  12 Li     1.753389    5.061850    3.920419    ( 0.0000,  0.0000,  0.0000)
  13 Li     0.000000    2.024928    3.920419    ( 0.0000,  0.0000,  0.0000)
  14 Li     3.506756    2.024928    3.920419    ( 0.0000,  0.0000,  0.0000)
  15 Li     5.260124    5.061850    3.920419    ( 0.0000,  0.0000,  0.0000)
  16 Li     1.749953    3.071589    5.927055    ( 0.0000,  0.0000,  0.0000)
  17 Li    -0.000058    0.026823    5.930406    ( 0.0000,  0.0000,  0.0000)
  18 Li     3.506787    0.041104    5.795000    ( 0.0000,  0.0000,  0.0000)
  19 Li     5.263487    3.071125    5.930083    ( 0.0000,  0.0000,  0.0000)
  20 Li     1.749375    1.044141    5.936961    ( 0.0000,  0.0000,  0.0000)
  21 Li    -0.000071    4.092822    5.912598    ( 0.0000,  0.0000,  0.0000)
  22 Li     3.506754    4.073764    5.796128    ( 0.0000,  0.0000,  0.0000)
  23 Li     5.264007    1.044577    5.940287    ( 0.0000,  0.0000,  0.0000)
  24 Li     1.909634    5.088810    7.902071    ( 0.0000,  0.0000,  0.0000)
  25 Li     0.006108    2.098523    7.908478    ( 0.0000,  0.0000,  0.0000)
  26 Li     3.500978    2.061034    7.859872    ( 0.0000,  0.0000,  0.0000)
  27 Li     5.104312    5.088355    7.892403    ( 0.0000,  0.0000,  0.0000)
  28 Li     1.791566    3.094406    9.805600    ( 0.0000,  0.0000,  0.0000)
  29 Li    -0.001210    0.041377    9.824172    ( 0.0000,  0.0000,  0.0000)
  30 Li     3.508666    0.078718   10.331575    ( 0.0000,  0.0000,  0.0000)
  31 Li     5.219985    3.094202    9.788157    ( 0.0000,  0.0000,  0.0000)
  32 Li     1.803975    1.042102    9.773220    ( 0.0000,  0.0000,  0.0000)
  33 Li    -0.001690    4.105078    9.966782    ( 0.0000,  0.0000,  0.0000)
  34 Li     3.508164    4.079275   10.248889    ( 0.0000,  0.0000,  0.0000)
  35 Li     5.207309    1.042114    9.755020    ( 0.0000,  0.0000,  0.0000)
  36 N      1.753389    5.061910    1.929076    ( 0.0000,  0.0000,  0.0000)
  37 N      0.000000    2.024989    1.929076    ( 0.0000,  0.0000,  0.0000)
  38 N      3.506756    2.024989    1.929076    ( 0.0000,  0.0000,  0.0000)
  39 N      5.260124    5.061910    1.929076    ( 0.0000,  0.0000,  0.0000)
  40 N      1.761560    5.095814    5.863669    ( 0.0000,  0.0000,  0.0000)
  41 N      0.000377    2.061392    5.931876    ( 0.0000,  0.0000,  0.0000)
  42 N      3.506391    2.058781    5.859303    ( 0.0000,  0.0000,  0.0000)
  43 N      5.251968    5.095805    5.862265    ( 0.0000,  0.0000,  0.0000)
  44 N      1.759456    5.111423    9.855170    ( 0.0000,  0.0000,  0.0000)
  45 N     -0.000968    2.070434    9.876012    ( 0.0000,  0.0000,  0.0000)
  46 N      3.505670    2.074968    9.774255    ( 0.0000,  0.0000,  0.0000)
  47 N      5.252072    5.111316    9.837463    ( 0.0000,  0.0000,  0.0000)
  48 Li     7.004644    1.982250   11.740600    ( 0.0000,  0.0000,  0.0000)

Unit cell:
           periodic     x           y           z      points  spacing
  1. axis:    yes    7.013470    0.000000    0.000000    40     0.1753
  2. axis:    yes    0.000000    6.073843    0.000000    32     0.1898
  3. axis:    yes    0.000000    0.000000   29.936001   160     0.1871

  Lengths:   7.013470   6.073843  29.936001
  Angles:   90.000000  90.000000  90.000000

Effective grid spacing dv^(1/3) = 0.1840

                     log10-error:    total        iterations:
           time      wfs    density  energy       fermi  poisson
iter:   1  10:25:40  -2.95         -154.800590    5             
iter:   2  10:25:52  -3.84  -2.18  -154.785013    4             
iter:   3  10:26:03  -4.84  -2.22  -154.780609    4             
iter:   4  10:26:14  -4.59  -2.62  -154.776844    3             
iter:   5  10:26:26  -4.72  -2.51  -154.776040    3             
iter:   6  10:26:37  -5.25  -3.09  -154.775907    2             
iter:   7  10:26:49  -5.57  -3.26  -154.775640    2             
iter:   8  10:27:00  -6.28  -3.26  -154.775679    2             
iter:   9  10:27:11  -6.32  -3.44  -154.776163    3             
iter:  10  10:27:23  -6.82  -3.57  -154.775887    2             
iter:  11  10:27:34  -7.15  -3.84  -154.775878    2             
iter:  12  10:27:45  -7.43  -3.87  -154.775917    2             
iter:  13  10:27:57  -7.69  -4.09  -154.775909    2             
iter:  14  10:28:08  -8.09  -4.14  -154.775912    2             

Converged after 14 iterations.

Dipole moment: (0.109814, -2.560961, 5.698529) |e|*Ang

Energy contributions relative to reference atoms: (reference = -25283.807400)

Kinetic:       +179.443941
Potential:     -130.617779
External:        +0.000000
XC:            -202.558961
Entropy (-ST):   -0.022864
Local:           -1.031681
--------------------------
Free energy:   -154.787344
Extrapolated:  -154.775912

Non-local vdW-DF-cx correlation energy: 15.307595
Semilocal GGA_X_LV_RPW86+LDA_C_PW energy: -1089.127656
(Not including atomic contributions)
Fermi level: -0.96870

Showing only first 2 kpts
 Kpt  Band  Eigenvalues  Occupancy
  0    46     -1.25620    0.13332
  0    47     -0.87824    0.00623
  0    48     -0.77326    0.00020
  0    49     -0.29597    0.00000

  1    46     -1.29975    0.13333
  1    47     -1.18523    0.13324
  1    48     -0.91141    0.01720
  1    49     -0.32920    0.00000


No gap

Forces in eV/Ang:
  0 Li    0.00040    0.00005   -0.10506
  1 Li    0.00003    0.00001   -0.10513
  2 Li   -0.00003   -0.00001   -0.10433
  3 Li   -0.00042    0.00004   -0.10493
  4 Li    0.00469    0.00393    0.02890
  5 Li   -0.00002   -0.00214    0.02792
  6 Li    0.00002    0.00046    0.02958
  7 Li   -0.00495    0.00418    0.02892
  8 Li    0.00498   -0.00412    0.02946
  9 Li    0.00008    0.00154    0.02683
 10 Li    0.00028   -0.00107    0.02973
 11 Li   -0.00480   -0.00431    0.02952
 12 Li   -0.08134    0.03364    0.06585
 13 Li   -0.00209    0.01682    0.34160
 14 Li    0.00202    0.02756    0.04718
 15 Li    0.08136    0.03349    0.06120
 16 Li    0.01681   -0.00109   -0.00449
 17 Li    0.00042    0.02756    0.04366
 18 Li   -0.00035   -0.03626    0.04599
 19 Li   -0.01695   -0.00144   -0.00623
 20 Li    0.01776   -0.00777   -0.00205
 21 Li    0.00063   -0.03591    0.03548
 22 Li   -0.00019    0.02747    0.05108
 23 Li   -0.01751   -0.00744   -0.00378
 24 Li   -0.04714   -0.00081   -0.03613
 25 Li   -0.00105    0.01362   -0.00035
 26 Li   -0.00040    0.00798   -0.14073
 27 Li    0.04866   -0.00076   -0.03870
 28 Li   -0.10016    0.04144   -0.02685
 29 Li   -0.00109   -0.02984    0.07696
 30 Li   -0.00042   -0.05380    0.14782
 31 Li    0.10298    0.04248   -0.02612
 32 Li   -0.10326   -0.04026   -0.03769
 33 Li   -0.00136    0.02909    0.15587
 34 Li   -0.00048    0.05989    0.10721
 35 Li    0.10556   -0.04154   -0.03672
 36 N    -0.00135    0.01511   -0.12731
 37 N     0.00016    0.01757   -0.10686
 38 N    -0.00017    0.01608   -0.14083
 39 N     0.00104    0.01521   -0.12877
 40 N     0.04132    0.00512    0.00913
 41 N    -0.00027    0.00738   -0.19557
 42 N     0.00003    0.00886    0.00355
 43 N    -0.04087    0.00509   -0.00072
 44 N     0.09724    0.01722   -0.00443
 45 N    -0.00166    0.01313   -0.05288
 46 N     0.00182    0.00651   -0.08027
 47 N    -0.09299    0.01764    0.03604
 48 Li   -0.00699   -0.05285   -0.00220

System changes: positions 

Initializing position-dependent things.

Density initialized from wave functions
     .----------------.  
    /|                |  
   / |                |  
  /  |                |  
 *   |                |  
 |   |                |  
 |   |                |  
 |   |                |  
 |   |                |  
 |   |                |  
 |   |                |  
 |   |                |  
 |   |                |  
 |   |                |  
 |   |                |  
 |   |                |  
 |   |                |  
 |   |                |  
 |   |                |  
 |   |                |  
 |   |                |  
 |   |                |  
 |   |                |  
 |   |                |  
 |   |                |  
 |   |   N       N Li |  
 |   |      Li       Li  
 |   | Li       Li N  |  
 |   |Li LLi  Li Li   |  
 |   |            Li  |  
 |Li |   N Li    N    |  
 |   |      Li       Li  
 |N  | Li  N    Li    |  
 |   |Li Li   Li Li   |  
 |   |    Li      Li  |  
 |Li |   N Li    N    |  
 |  Li      Li        |  
 |N  .-Li--N----Li----.  
 |  / Li Li   Li Li  /   
 Li/      Li        /    
 |/i       Li      /     
 *----------------*      

Positions:
   0 Li     1.753389    5.061850    0.000000    ( 0.0000,  0.0000,  0.0000)
   1 Li     0.000000    2.024928    0.000000    ( 0.0000,  0.0000,  0.0000)
   2 Li     3.506756    2.024928    0.000000    ( 0.0000,  0.0000,  0.0000)
   3 Li     5.260124    5.061850    0.000000    ( 0.0000,  0.0000,  0.0000)
   4 Li     1.753389    3.037256    1.946139    ( 0.0000,  0.0000,  0.0000)
   5 Li     0.000000    0.000334    1.946139    ( 0.0000,  0.0000,  0.0000)
   6 Li     3.506756    0.000334    1.946139    ( 0.0000,  0.0000,  0.0000)
   7 Li     5.260124    3.037256    1.946139    ( 0.0000,  0.0000,  0.0000)
   8 Li     1.753367    1.012631    1.946139    ( 0.0000,  0.0000,  0.0000)
   9 Li     0.000000    4.049553    1.946139    ( 0.0000,  0.0000,  0.0000)
  10 Li     3.506735    4.049553    1.946139    ( 0.0000,  0.0000,  0.0000)
  11 Li     5.260103    1.012631    1.946139    ( 0.0000,  0.0000,  0.0000)
  12 Li     1.753389    5.061850    3.920419    ( 0.0000,  0.0000,  0.0000)
  13 Li     0.000000    2.024928    3.920419    ( 0.0000,  0.0000,  0.0000)
  14 Li     3.506756    2.024928    3.920419    ( 0.0000,  0.0000,  0.0000)
  15 Li     5.260124    5.061850    3.920419    ( 0.0000,  0.0000,  0.0000)
  16 Li     1.747676    3.071277    5.914473    ( 0.0000,  0.0000,  0.0000)
  17 Li    -0.000041    0.026603    5.930490    ( 0.0000,  0.0000,  0.0000)
  18 Li     3.506820    0.039628    5.794489    ( 0.0000,  0.0000,  0.0000)
  19 Li     5.265761    3.070907    5.916903    ( 0.0000,  0.0000,  0.0000)
  20 Li     1.747149    1.043642    5.924790    ( 0.0000,  0.0000,  0.0000)
  21 Li    -0.000049    4.092459    5.910973    ( 0.0000,  0.0000,  0.0000)
  22 Li     3.506789    4.074496    5.797134    ( 0.0000,  0.0000,  0.0000)
  23 Li     5.266240    1.043998    5.927544    ( 0.0000,  0.0000,  0.0000)
  24 Li     1.896344    5.089448    7.912315    ( 0.0000,  0.0000,  0.0000)
  25 Li     0.005391    2.101611    7.910266    ( 0.0000,  0.0000,  0.0000)
  26 Li     3.501363    2.063133    7.854228    ( 0.0000,  0.0000,  0.0000)
  27 Li     5.118252    5.088967    7.902899    ( 0.0000,  0.0000,  0.0000)
  28 Li     1.792499    3.095502    9.792903    ( 0.0000,  0.0000,  0.0000)
  29 Li    -0.001157    0.047539    9.837724    ( 0.0000,  0.0000,  0.0000)
  30 Li     3.508818    0.079642   10.347317    ( 0.0000,  0.0000,  0.0000)
  31 Li     5.219275    3.095433    9.775223    ( 0.0000,  0.0000,  0.0000)
  32 Li     1.806908    1.041129    9.759151    ( 0.0000,  0.0000,  0.0000)
  33 Li    -0.001705    4.099278    9.996969    ( 0.0000,  0.0000,  0.0000)
  34 Li     3.508289    4.084135   10.256857    ( 0.0000,  0.0000,  0.0000)
  35 Li     5.204551    1.040941    9.740907    ( 0.0000,  0.0000,  0.0000)
  36 N      1.753389    5.061910    1.929076    ( 0.0000,  0.0000,  0.0000)
  37 N      0.000000    2.024989    1.929076    ( 0.0000,  0.0000,  0.0000)
  38 N      3.506756    2.024989    1.929076    ( 0.0000,  0.0000,  0.0000)
  39 N      5.260124    5.061910    1.929076    ( 0.0000,  0.0000,  0.0000)
  40 N      1.762190    5.095550    5.862355    ( 0.0000,  0.0000,  0.0000)
  41 N      0.000321    2.061213    5.930628    ( 0.0000,  0.0000,  0.0000)
  42 N      3.506415    2.058673    5.852439    ( 0.0000,  0.0000,  0.0000)
  43 N      5.251355    5.095534    5.860607    ( 0.0000,  0.0000,  0.0000)
  44 N      1.761178    5.112834    9.872425    ( 0.0000,  0.0000,  0.0000)
  45 N     -0.001014    2.070822    9.866123    ( 0.0000,  0.0000,  0.0000)
  46 N      3.505871    2.076536    9.772731    ( 0.0000,  0.0000,  0.0000)
  47 N      5.250754    5.112716    9.858670    ( 0.0000,  0.0000,  0.0000)
  48 Li     7.002987    1.972683   11.733444    ( 0.0000,  0.0000,  0.0000)

Unit cell:
           periodic     x           y           z      points  spacing
  1. axis:    yes    7.013470    0.000000    0.000000    40     0.1753
  2. axis:    yes    0.000000    6.073843    0.000000    32     0.1898
  3. axis:    yes    0.000000    0.000000   29.936001   160     0.1871

  Lengths:   7.013470   6.073843  29.936001
  Angles:   90.000000  90.000000  90.000000

Effective grid spacing dv^(1/3) = 0.1840

                     log10-error:    total        iterations:
           time      wfs    density  energy       fermi  poisson
iter:   1  10:28:31  -2.83         -154.823327    5             
iter:   2  10:28:43  -3.69  -2.08  -154.812578    4             
iter:   3  10:28:54  -4.56  -2.05  -154.795094    4             
iter:   4  10:29:05  -4.76  -2.54  -154.789355    3             
iter:   5  10:29:17  -4.41  -2.59  -154.787782    2             
iter:   6  10:29:28  -4.75  -2.81  -154.791761    3             
iter:   7  10:29:39  -5.60  -2.81  -154.789645    3             
iter:   8  10:29:51  -5.45  -3.04  -154.787776    3             
iter:   9  10:30:02  -5.39  -3.14  -154.790951    3             
iter:  10  10:30:14  -5.94  -2.94  -154.788941    3             
iter:  11  10:30:25  -6.00  -3.37  -154.788061    3             
iter:  12  10:30:36  -6.70  -3.53  -154.788665    3             
iter:  13  10:30:48  -7.02  -3.58  -154.788165    3             
iter:  14  10:30:59  -7.46  -3.77  -154.788324    2             
iter:  15  10:31:10  -7.85  -4.27  -154.788312    2             
iter:  16  10:31:22  -8.16  -4.49  -154.788338    2             

Converged after 16 iterations.

Dipole moment: (0.141122, -2.604754, 5.691572) |e|*Ang

Energy contributions relative to reference atoms: (reference = -25283.807400)

Kinetic:       +179.209407
Potential:     -130.473542
External:        +0.000000
XC:            -202.478989
Entropy (-ST):   -0.022685
Local:           -1.033871
--------------------------
Free energy:   -154.799681
Extrapolated:  -154.788338

Non-local vdW-DF-cx correlation energy: 15.306534
Semilocal GGA_X_LV_RPW86+LDA_C_PW energy: -1089.064282
(Not including atomic contributions)
Fermi level: -0.97143

Showing only first 2 kpts
 Kpt  Band  Eigenvalues  Occupancy
  0    46     -1.26220    0.13333
  0    47     -0.88067    0.00617
  0    48     -0.77508    0.00019
  0    49     -0.30189    0.00000

  1    46     -1.30175    0.13333
  1    47     -1.18596    0.13323
  1    48     -0.91308    0.01668
  1    49     -0.33248    0.00000


No gap

Forces in eV/Ang:
  0 Li    0.00039    0.00005   -0.10562
  1 Li    0.00002    0.00001   -0.10584
  2 Li   -0.00002   -0.00002   -0.10479
  3 Li   -0.00041    0.00004   -0.10552
  4 Li    0.00531    0.00381    0.02930
  5 Li   -0.00002   -0.00247    0.02847
  6 Li    0.00002    0.00102    0.03030
  7 Li   -0.00556    0.00405    0.02934
  8 Li    0.00562   -0.00399    0.02985
  9 Li    0.00007    0.00183    0.02731
 10 Li    0.00029   -0.00164    0.03067
 11 Li   -0.00544   -0.00416    0.02991
 12 Li   -0.07959    0.03393    0.05445
 13 Li   -0.00178    0.01558    0.32094
 14 Li    0.00168    0.02768    0.00977
 15 Li    0.07965    0.03380    0.04812
 16 Li    0.03891   -0.00123    0.01670
 17 Li    0.00096    0.02180    0.05345
 18 Li   -0.00103   -0.02293    0.07037
 19 Li   -0.03895   -0.00273    0.01481
 20 Li    0.03970   -0.00551    0.01982
 21 Li    0.00112   -0.02765    0.04481
 22 Li   -0.00093    0.01701    0.07360
 23 Li   -0.03945   -0.00412    0.01785
 24 Li   -0.02294   -0.00389   -0.06589
 25 Li    0.00131    0.01307   -0.06874
 26 Li   -0.00178    0.00588   -0.14401
 27 Li    0.02368   -0.00363   -0.05809
 28 Li   -0.09032    0.04365   -0.01381
 29 Li   -0.00014   -0.10074    0.08327
 30 Li   -0.00071   -0.01132    0.17699
 31 Li    0.09247    0.04414   -0.00935
 32 Li   -0.09317   -0.03364   -0.02421
 33 Li   -0.00032    0.09830    0.16392
 34 Li   -0.00081    0.00829    0.13372
 35 Li    0.09462   -0.03420   -0.02001
 36 N    -0.00188    0.01506   -0.13027
 37 N     0.00020    0.01771   -0.10856
 38 N    -0.00019    0.01588   -0.14640
 39 N     0.00157    0.01511   -0.13126
 40 N     0.01438    0.00431    0.03323
 41 N    -0.00070    0.00730   -0.20245
 42 N     0.00051    0.00734    0.00953
 43 N    -0.01348    0.00441    0.02861
 44 N     0.05561    0.01540   -0.05420
 45 N    -0.00142    0.01452   -0.00541
 46 N     0.00216    0.00403   -0.13104
 47 N    -0.05188    0.01630   -0.02558
 48 Li   -0.00724   -0.05952   -0.00386

System changes: positions 

Initializing position-dependent things.

Density initialized from wave functions
     .----------------.  
    /|                |  
   / |                |  
  /  |                |  
 *   |                |  
 |   |                |  
 |   |                |  
 |   |                |  
 |   |                |  
 |   |                |  
 |   |                |  
 |   |                |  
 |   |                |  
 |   |                |  
 |   |                |  
 |   |                |  
 |   |                |  
 |   |                |  
 |   |                |  
 |   |                |  
 |   |                |  
 |   |                |  
 |   |                |  
 |   |                |  
 |   |                |  
 |   |   N       N Li |  
 |   |      Li       Li  
 |   | Li       Li N  |  
 |   |Li LLi  Li Li   |  
 |   |            Li  |  
 |Li |   N Li    N    |  
 |  Li      Li        |  
 |N  | Li  N    Li    |  
 |   |Li Li   Li Li   |  
 Li  |    Li          |  
 |Li |   N Li    N    |  
 |  Li      Li        |  
 |N  .-Li--N----Li----.  
 |  / Li Li   Li Li  /   
 Li/      Li        /    
 |/i       Li      /     
 *----------------*      

Positions:
   0 Li     1.753389    5.061850    0.000000    ( 0.0000,  0.0000,  0.0000)
   1 Li     0.000000    2.024928    0.000000    ( 0.0000,  0.0000,  0.0000)
   2 Li     3.506756    2.024928    0.000000    ( 0.0000,  0.0000,  0.0000)
   3 Li     5.260124    5.061850    0.000000    ( 0.0000,  0.0000,  0.0000)
   4 Li     1.753389    3.037256    1.946139    ( 0.0000,  0.0000,  0.0000)
   5 Li     0.000000    0.000334    1.946139    ( 0.0000,  0.0000,  0.0000)
   6 Li     3.506756    0.000334    1.946139    ( 0.0000,  0.0000,  0.0000)
   7 Li     5.260124    3.037256    1.946139    ( 0.0000,  0.0000,  0.0000)
   8 Li     1.753367    1.012631    1.946139    ( 0.0000,  0.0000,  0.0000)
   9 Li     0.000000    4.049553    1.946139    ( 0.0000,  0.0000,  0.0000)
  10 Li     3.506735    4.049553    1.946139    ( 0.0000,  0.0000,  0.0000)
  11 Li     5.260103    1.012631    1.946139    ( 0.0000,  0.0000,  0.0000)
  12 Li     1.753389    5.061850    3.920419    ( 0.0000,  0.0000,  0.0000)
  13 Li     0.000000    2.024928    3.920419    ( 0.0000,  0.0000,  0.0000)
  14 Li     3.506756    2.024928    3.920419    ( 0.0000,  0.0000,  0.0000)
  15 Li     5.260124    5.061850    3.920419    ( 0.0000,  0.0000,  0.0000)
  16 Li     1.745554    3.070827    5.897838    ( 0.0000,  0.0000,  0.0000)
  17 Li     0.000002    0.027260    5.932372    ( 0.0000,  0.0000,  0.0000)
  18 Li     3.506845    0.036489    5.795885    ( 0.0000,  0.0000,  0.0000)
  19 Li     5.267876    3.070557    5.899404    ( 0.0000,  0.0000,  0.0000)
  20 Li     1.745121    1.042714    5.908810    ( 0.0000,  0.0000,  0.0000)
  21 Li     0.000009    4.090761    5.910258    ( 0.0000,  0.0000,  0.0000)
  22 Li     3.506821    4.076360    5.800707    ( 0.0000,  0.0000,  0.0000)
  23 Li     5.268288    1.042988    5.910734    ( 0.0000,  0.0000,  0.0000)
  24 Li     1.877217    5.090218    7.924155    ( 0.0000,  0.0000,  0.0000)
  25 Li     0.004430    2.106232    7.911585    ( 0.0000,  0.0000,  0.0000)
  26 Li     3.501843    2.066190    7.841343    ( 0.0000,  0.0000,  0.0000)
  27 Li     5.138285    5.089706    7.915107    ( 0.0000,  0.0000,  0.0000)
  28 Li     1.790113    3.098543    9.775179    ( 0.0000,  0.0000,  0.0000)
  29 Li    -0.001116    0.053702    9.858806    ( 0.0000,  0.0000,  0.0000)
  30 Li     3.509004    0.079496   10.374324    ( 0.0000,  0.0000,  0.0000)
  31 Li     5.222055    3.098691    9.757278    ( 0.0000,  0.0000,  0.0000)
  32 Li     1.807127    1.038443    9.739196    ( 0.0000,  0.0000,  0.0000)
  33 Li    -0.001764    4.093517   10.043240    ( 0.0000,  0.0000,  0.0000)
  34 Li     3.508435    4.092104   10.271949    ( 0.0000,  0.0000,  0.0000)
  35 Li     5.204641    1.037946    9.720988    ( 0.0000,  0.0000,  0.0000)
  36 N      1.753389    5.061910    1.929076    ( 0.0000,  0.0000,  0.0000)
  37 N      0.000000    2.024989    1.929076    ( 0.0000,  0.0000,  0.0000)
  38 N      3.506756    2.024989    1.929076    ( 0.0000,  0.0000,  0.0000)
  39 N      5.260124    5.061910    1.929076    ( 0.0000,  0.0000,  0.0000)
  40 N      1.764163    5.095353    5.861297    ( 0.0000,  0.0000,  0.0000)
  41 N      0.000235    2.061226    5.922366    ( 0.0000,  0.0000,  0.0000)
  42 N      3.506453    2.058820    5.843394    ( 0.0000,  0.0000,  0.0000)
  43 N      5.249427    5.095330    5.858825    ( 0.0000,  0.0000,  0.0000)
  44 N      1.766213    5.115296    9.895122    ( 0.0000,  0.0000,  0.0000)
  45 N     -0.001126    2.071846    9.851253    ( 0.0000,  0.0000,  0.0000)
  46 N      3.506212    2.078788    9.767036    ( 0.0000,  0.0000,  0.0000)
  47 N      5.246409    5.115189    9.887936    ( 0.0000,  0.0000,  0.0000)
  48 Li     7.000508    1.957804   11.723901    ( 0.0000,  0.0000,  0.0000)

Unit cell:
           periodic     x           y           z      points  spacing
  1. axis:    yes    7.013470    0.000000    0.000000    40     0.1753
  2. axis:    yes    0.000000    6.073843    0.000000    32     0.1898
  3. axis:    yes    0.000000    0.000000   29.936001   160     0.1871

  Lengths:   7.013470   6.073843  29.936001
  Angles:   90.000000  90.000000  90.000000

Effective grid spacing dv^(1/3) = 0.1840

                     log10-error:    total        iterations:
           time      wfs    density  energy       fermi  poisson
iter:   1  10:31:45  -2.54         -154.874907    5             
iter:   2  10:31:56  -3.32  -1.90  -154.906034    4             
iter:   3  10:32:07  -4.07  -1.78  -154.813671    4             
iter:   4  10:32:19  -4.81  -2.41  -154.807486    3             
iter:   5  10:32:30  -4.00  -2.51  -154.803776    3             
iter:   6  10:32:42  -4.35  -2.46  -154.809511    4             
iter:   7  10:32:53  -5.72  -2.58  -154.806902    4             
iter:   8  10:33:04  -4.71  -2.70  -154.801672    3             
iter:   9  10:33:16  -5.63  -2.89  -154.803159    3             
iter:  10  10:33:27  -6.04  -3.16  -154.802578    3             
iter:  11  10:33:39  -5.99  -3.31  -154.803627    3             
iter:  12  10:33:50  -5.86  -3.09  -154.802618    3             
iter:  13  10:34:01  -6.67  -3.52  -154.802325    2             
iter:  14  10:34:13  -7.12  -3.74  -154.802438    2             
iter:  15  10:34:24  -7.33  -3.77  -154.802292    2             
iter:  16  10:34:36  -7.63  -3.91  -154.802378    2             
iter:  17  10:34:47  -7.26  -4.03  -154.802321    2             
iter:  18  10:34:58  -8.56  -4.15  -154.802338    2             

Converged after 18 iterations.

Dipole moment: (0.190384, -2.634645, 5.684372) |e|*Ang

Energy contributions relative to reference atoms: (reference = -25283.807400)

Kinetic:       +178.748231
Potential:     -130.175284
External:        +0.000000
XC:            -202.327629
Entropy (-ST):   -0.022388
Local:           -1.036463
--------------------------
Free energy:   -154.813532
Extrapolated:  -154.802338

Non-local vdW-DF-cx correlation energy: 15.304128
Semilocal GGA_X_LV_RPW86+LDA_C_PW energy: -1088.945088
(Not including atomic contributions)
Fermi level: -0.97123

Showing only first 2 kpts
 Kpt  Band  Eigenvalues  Occupancy
  0    46     -1.26700    0.13333
  0    47     -0.87786    0.00568
  0    48     -0.77467    0.00019
  0    49     -0.30657    0.00000

  1    46     -1.30670    0.13333
  1    47     -1.17894    0.13320
  1    48     -0.91266    0.01657
  1    49     -0.33387    0.00000


No gap

Forces in eV/Ang:
  0 Li    0.00038    0.00005   -0.10562
  1 Li    0.00001    0.00001   -0.10590
  2 Li   -0.00001   -0.00002   -0.10468
  3 Li   -0.00041    0.00004   -0.10555
  4 Li    0.00565    0.00328    0.02930
  5 Li   -0.00004   -0.00231    0.02847
  6 Li    0.00004    0.00186    0.03025
  7 Li   -0.00590    0.00351    0.02934
  8 Li    0.00598   -0.00344    0.02976
  9 Li    0.00005    0.00164    0.02730
 10 Li    0.00031   -0.00250    0.03098
 11 Li   -0.00580   -0.00361    0.02982
 12 Li   -0.07703    0.03417    0.04345
 13 Li   -0.00133    0.01370    0.27883
 14 Li    0.00121    0.02760   -0.04212
 15 Li    0.07714    0.03406    0.03396
 16 Li    0.06431   -0.00146    0.03565
 17 Li    0.00150    0.00542    0.05777
 18 Li   -0.00170    0.00733    0.09834
 19 Li   -0.06414   -0.00410    0.03356
 20 Li    0.06431    0.00039    0.03978
 21 Li    0.00149   -0.00462    0.04804
 22 Li   -0.00173   -0.00632    0.09918
 23 Li   -0.06414    0.00282    0.03748
 24 Li    0.01641   -0.00820   -0.08786
 25 Li    0.00455    0.01071   -0.17900
 26 Li   -0.00325    0.00304   -0.10776
 27 Li   -0.01704   -0.00763   -0.06398
 28 Li   -0.04296    0.03619   -0.00657
 29 Li    0.00197   -0.18577    0.08390
 30 Li   -0.00122    0.08022    0.19397
 31 Li    0.04359    0.03598    0.00391
 32 Li   -0.03757   -0.01017   -0.01386
 33 Li    0.00183    0.17901    0.16991
 34 Li   -0.00140   -0.09070    0.14787
 35 Li    0.03728   -0.00974   -0.00442
 36 N    -0.00231    0.01517   -0.12647
 37 N     0.00020    0.01771   -0.10697
 38 N    -0.00018    0.01552   -0.14750
 39 N     0.00200    0.01514   -0.12700
 40 N    -0.03716    0.00143    0.06487
 41 N    -0.00109    0.00522   -0.17821
 42 N     0.00098    0.00209    0.00758
 43 N     0.03864    0.00172    0.06983
 44 N    -0.02663    0.01178   -0.11600
 45 N    -0.00041    0.01482    0.07445
 46 N     0.00222    0.00264   -0.19310
 47 N     0.03011    0.01353   -0.11715
 48 Li   -0.00810   -0.06818   -0.01167

System changes: positions 

Initializing position-dependent things.

Density initialized from wave functions
     .----------------.  
    /|                |  
   / |                |  
  /  |                |  
 *   |                |  
 |   |                |  
 |   |                |  
 |   |                |  
 |   |                |  
 |   |                |  
 |   |                |  
 |   |                |  
 |   |                |  
 |   |                |  
 |   |                |  
 |   |                |  
 |   |                |  
 |   |                |  
 |   |                |  
 |   |                |  
 |   |                |  
 |   |                |  
 |   |                |  
 |   |                |  
 |   |                |  
 |   |   N       N Li |  
 |   |      Li       Li  
 |   | Li       Li N  |  
 |   |Li LLi  Li Li   |  
 |   |            Li  |  
 |Li |   N Li    N    |  
 |  Li      Li        |  
 |N  | Li  N    Li    |  
 |   |Li Li   Li Li   |  
 Li  |    Li          |  
 |Li |   N Li    N    |  
 |  Li      Li        |  
 |N  .-Li--N----Li----.  
 |  / Li Li   Li Li  /   
 Li/      Li        /    
 |/i       Li      /     
 *----------------*      

Positions:
   0 Li     1.753389    5.061850    0.000000    ( 0.0000,  0.0000,  0.0000)
   1 Li     0.000000    2.024928    0.000000    ( 0.0000,  0.0000,  0.0000)
   2 Li     3.506756    2.024928    0.000000    ( 0.0000,  0.0000,  0.0000)
   3 Li     5.260124    5.061850    0.000000    ( 0.0000,  0.0000,  0.0000)
   4 Li     1.753389    3.037256    1.946139    ( 0.0000,  0.0000,  0.0000)
   5 Li     0.000000    0.000334    1.946139    ( 0.0000,  0.0000,  0.0000)
   6 Li     3.506756    0.000334    1.946139    ( 0.0000,  0.0000,  0.0000)
   7 Li     5.260124    3.037256    1.946139    ( 0.0000,  0.0000,  0.0000)
   8 Li     1.753367    1.012631    1.946139    ( 0.0000,  0.0000,  0.0000)
   9 Li     0.000000    4.049553    1.946139    ( 0.0000,  0.0000,  0.0000)
  10 Li     3.506735    4.049553    1.946139    ( 0.0000,  0.0000,  0.0000)
  11 Li     5.260103    1.012631    1.946139    ( 0.0000,  0.0000,  0.0000)
  12 Li     1.753389    5.061850    3.920419    ( 0.0000,  0.0000,  0.0000)
  13 Li     0.000000    2.024928    3.920419    ( 0.0000,  0.0000,  0.0000)
  14 Li     3.506756    2.024928    3.920419    ( 0.0000,  0.0000,  0.0000)
  15 Li     5.260124    5.061850    3.920419    ( 0.0000,  0.0000,  0.0000)
  16 Li     1.745542    3.070505    5.887896    ( 0.0000,  0.0000,  0.0000)
  17 Li     0.000057    0.028446    5.935479    ( 0.0000,  0.0000,  0.0000)
  18 Li     3.506832    0.033739    5.799365    ( 0.0000,  0.0000,  0.0000)
  19 Li     5.267882    3.070258    5.888856    ( 0.0000,  0.0000,  0.0000)
  20 Li     1.745184    1.041952    5.899402    ( 0.0000,  0.0000,  0.0000)
  21 Li     0.000078    4.088753    5.911392    ( 0.0000,  0.0000,  0.0000)
  22 Li     3.506817    4.078124    5.805675    ( 0.0000,  0.0000,  0.0000)
  23 Li     5.268247    1.042211    5.900738    ( 0.0000,  0.0000,  0.0000)
  24 Li     1.864426    5.090547    7.929320    ( 0.0000,  0.0000,  0.0000)
  25 Li     0.003876    2.109592    7.909685    ( 0.0000,  0.0000,  0.0000)
  26 Li     3.502084    2.068329    7.828275    ( 0.0000,  0.0000,  0.0000)
  27 Li     5.151658    5.090025    7.920756    ( 0.0000,  0.0000,  0.0000)
  28 Li     1.785505    3.101987    9.763361    ( 0.0000,  0.0000,  0.0000)
  29 Li    -0.001087    0.054252    9.875068    ( 0.0000,  0.0000,  0.0000)
  30 Li     3.509090    0.079324   10.397644    ( 0.0000,  0.0000,  0.0000)
  31 Li     5.226991    3.102301    9.745511    ( 0.0000,  0.0000,  0.0000)
  32 Li     1.804223    1.035666    9.725622    ( 0.0000,  0.0000,  0.0000)
  33 Li    -0.001810    4.093054   10.078459    ( 0.0000,  0.0000,  0.0000)
  34 Li     3.508493    4.097171   10.286175    ( 0.0000,  0.0000,  0.0000)
  35 Li     5.207792    1.034944    9.707612    ( 0.0000,  0.0000,  0.0000)
  36 N      1.753389    5.061910    1.929076    ( 0.0000,  0.0000,  0.0000)
  37 N      0.000000    2.024989    1.929076    ( 0.0000,  0.0000,  0.0000)
  38 N      3.506756    2.024989    1.929076    ( 0.0000,  0.0000,  0.0000)
  39 N      5.260124    5.061910    1.929076    ( 0.0000,  0.0000,  0.0000)
  40 N      1.765871    5.095358    5.861799    ( 0.0000,  0.0000,  0.0000)
  41 N      0.000164    2.061475    5.910355    ( 0.0000,  0.0000,  0.0000)
  42 N      3.506487    2.059145    5.837852    ( 0.0000,  0.0000,  0.0000)
  43 N      5.247775    5.095335    5.858726    ( 0.0000,  0.0000,  0.0000)
  44 N      1.771182    5.117414    9.907923    ( 0.0000,  0.0000,  0.0000)
  45 N     -0.001233    2.073034    9.841428    ( 0.0000,  0.0000,  0.0000)
  46 N      3.506500    2.080367    9.758720    ( 0.0000,  0.0000,  0.0000)
  47 N      5.242034    5.117353    9.905732    ( 0.0000,  0.0000,  0.0000)
  48 Li     6.998666    1.946179   11.717859    ( 0.0000,  0.0000,  0.0000)

Unit cell:
           periodic     x           y           z      points  spacing
  1. axis:    yes    7.013470    0.000000    0.000000    40     0.1753
  2. axis:    yes    0.000000    6.073843    0.000000    32     0.1898
  3. axis:    yes    0.000000    0.000000   29.936001   160     0.1871

  Lengths:   7.013470   6.073843  29.936001
  Angles:   90.000000  90.000000  90.000000

Effective grid spacing dv^(1/3) = 0.1840

                     log10-error:    total        iterations:
           time      wfs    density  energy       fermi  poisson
iter:   1  10:35:21  -2.85         -154.836266    5             
iter:   2  10:35:33  -3.83  -2.18  -154.820240    4             
iter:   3  10:35:44  -4.76  -2.25  -154.817780    4             
iter:   4  10:35:55  -4.53  -2.58  -154.812797    3             
iter:   5  10:36:06  -4.78  -2.61  -154.812979    3             
iter:   6  10:36:18  -5.31  -3.04  -154.813361    2             
iter:   7  10:36:29  -5.63  -3.10  -154.812469    3             
iter:   8  10:36:40  -5.96  -3.23  -154.812250    2             
iter:   9  10:36:51  -6.25  -3.24  -154.812851    2             
iter:  10  10:37:02  -7.06  -3.64  -154.812614    2             
iter:  11  10:37:14  -7.08  -3.67  -154.812720    2             
iter:  12  10:37:25  -7.39  -3.86  -154.812797    2             
iter:  13  10:37:36  -7.93  -3.95  -154.812770    2             
iter:  14  10:37:47  -7.32  -4.04  -154.812742    2             
iter:  15  10:37:58  -7.85  -4.22  -154.812740    2             
iter:  16  10:38:10  -8.63  -4.27  -154.812741    2             

Converged after 16 iterations.

Dipole moment: (0.227043, -2.625313, 5.675685) |e|*Ang

Energy contributions relative to reference atoms: (reference = -25283.807400)

Kinetic:       +178.319664
Potential:     -129.891437
External:        +0.000000
XC:            -202.192546
Entropy (-ST):   -0.022031
Local:           -1.037406
--------------------------
Free energy:   -154.823756
Extrapolated:  -154.812741

Non-local vdW-DF-cx correlation energy: 15.301749
Semilocal GGA_X_LV_RPW86+LDA_C_PW energy: -1088.841320
(Not including atomic contributions)
Fermi level: -0.96778

Showing only first 2 kpts
 Kpt  Band  Eigenvalues  Occupancy
  0    46     -1.26877    0.13333
  0    47     -0.87096    0.00509
  0    48     -0.77216    0.00020
  0    49     -0.30565    0.00000

  1    46     -1.31296    0.13333
  1    47     -1.16826    0.13317
  1    48     -0.91038    0.01715
  1    49     -0.33114    0.00000


No gap

Forces in eV/Ang:
  0 Li    0.00036    0.00005   -0.10637
  1 Li    0.00001    0.00002   -0.10658
  2 Li   -0.00001   -0.00001   -0.10538
  3 Li   -0.00038    0.00004   -0.10632
  4 Li    0.00540    0.00264    0.02929
[...]
  42 N      3.506522    2.059588    5.834697    ( 0.0000,  0.0000,  0.0000)
  43 N      5.246876    5.095474    5.861050    ( 0.0000,  0.0000,  0.0000)
  44 N      1.775685    5.119485    9.912433    ( 0.0000,  0.0000,  0.0000)
  45 N     -0.001353    2.074534    9.836181    ( 0.0000,  0.0000,  0.0000)
  46 N      3.506790    2.081596    9.745608    ( 0.0000,  0.0000,  0.0000)
  47 N      5.238135    5.119522    9.914049    ( 0.0000,  0.0000,  0.0000)
  48 Li     6.997030    1.935011   11.713800    ( 0.0000,  0.0000,  0.0000)

Unit cell:
           periodic     x           y           z      points  spacing
  1. axis:    yes    7.013470    0.000000    0.000000    40     0.1753
  2. axis:    yes    0.000000    6.073843    0.000000    32     0.1898
  3. axis:    yes    0.000000    0.000000   29.936001   160     0.1871

  Lengths:   7.013470   6.073843  29.936001
  Angles:   90.000000  90.000000  90.000000

Effective grid spacing dv^(1/3) = 0.1840

                     log10-error:    total        iterations:
           time      wfs    density  energy       fermi  poisson
iter:   1  10:38:33  -2.95         -154.834536    4             
iter:   2  10:38:44  -4.10  -2.55  -154.829290    3             
iter:   3  10:38:55  -4.97  -2.74  -154.829937    2             
iter:   4  10:39:07  -4.39  -2.82  -154.828104    3             
iter:   5  10:39:18  -5.82  -2.76  -154.828385    3             
iter:   6  10:39:29  -5.66  -3.03  -154.827992    2             
iter:   7  10:39:41  -5.39  -2.78  -154.829673    3             
iter:   8  10:39:52  -6.07  -3.09  -154.829386    2             
iter:   9  10:40:04  -5.63  -3.21  -154.828301    2             
iter:  10  10:40:15  -7.02  -3.46  -154.828574    2             
iter:  11  10:40:27  -6.85  -3.77  -154.828608    2             
iter:  12  10:40:38  -7.49  -3.82  -154.828566    2             
iter:  13  10:40:49  -6.58  -3.97  -154.828626    2             
iter:  14  10:41:01  -7.48  -4.00  -154.828585    2             
iter:  15  10:41:12  -7.55  -4.28  -154.828582    2             
iter:  16  10:41:24  -8.44  -4.38  -154.828572    2             

Converged after 16 iterations.

Dipole moment: (0.257331, -2.582600, 5.668670) |e|*Ang

Energy contributions relative to reference atoms: (reference = -25283.807400)

Kinetic:       +177.891805
Potential:     -129.609118
External:        +0.000000
XC:            -202.063604
Entropy (-ST):   -0.021641
Local:           -1.036835
--------------------------
Free energy:   -154.839392
Extrapolated:  -154.828572

Non-local vdW-DF-cx correlation energy: 15.299400
Semilocal GGA_X_LV_RPW86+LDA_C_PW energy: -1088.744206
(Not including atomic contributions)
Fermi level: -0.96032

Showing only first 2 kpts
 Kpt  Band  Eigenvalues  Occupancy
  0    46     -1.26831    0.13333
  0    47     -0.85849    0.00433
  0    48     -0.76563    0.00020
  0    49     -0.29955    0.00000

  1    46     -1.32113    0.13333
  1    47     -1.15322    0.13312
  1    48     -0.90461    0.01801
  1    49     -0.32453    0.00000


No gap

Forces in eV/Ang:
  0 Li    0.00028    0.00004   -0.10672
  1 Li    0.00000    0.00004   -0.10674
  2 Li    0.00000   -0.00001   -0.10576
  3 Li   -0.00030    0.00003   -0.10668
  4 Li    0.00439    0.00165    0.02936
  5 Li   -0.00010   -0.00019    0.02854
  6 Li    0.00009    0.00283    0.02935
  7 Li   -0.00464    0.00192    0.02941
  8 Li    0.00477   -0.00181    0.02960
  9 Li   -0.00001   -0.00057    0.02755
 10 Li    0.00036   -0.00349    0.03050
 11 Li   -0.00458   -0.00200    0.02969
 12 Li   -0.07540    0.03416    0.05302
 13 Li   -0.00066    0.01040    0.18080
 14 Li    0.00054    0.02714   -0.09419
 15 Li    0.07560    0.03407    0.03961
 16 Li    0.05322    0.00049    0.01911
 17 Li    0.00094   -0.02330    0.02772
 18 Li   -0.00085    0.04822    0.10533
 19 Li   -0.05279   -0.00098    0.01795
 20 Li    0.05110    0.01074    0.02519
 21 Li    0.00057    0.03941    0.01582
 22 Li   -0.00109   -0.03382    0.10275
 23 Li   -0.05126    0.01202    0.02367
 24 Li    0.06939   -0.01168   -0.05370
 25 Li    0.00661    0.00448   -0.24504
 26 Li   -0.00265   -0.00181    0.02935
 27 Li   -0.07216   -0.01084   -0.01678
 28 Li    0.07191   -0.00254   -0.02939
 29 Li    0.00536   -0.17133    0.04885
 30 Li   -0.00106    0.21204    0.13600
 31 Li   -0.07406   -0.00289   -0.01224
 32 Li    0.10181    0.05016   -0.02655
 33 Li    0.00504    0.16349    0.16132
 34 Li   -0.00095   -0.21341    0.09648
 35 Li   -0.10451    0.05147   -0.01173
 36 N    -0.00171    0.01552   -0.11877
 37 N     0.00020    0.01731   -0.11196
 38 N    -0.00015    0.01512   -0.14440
 39 N     0.00140    0.01541   -0.11922
 40 N    -0.09907   -0.00731    0.09399
 41 N     0.00024   -0.00410    0.00887
 42 N     0.00022   -0.01162   -0.00484
 43 N     0.10035   -0.00694    0.11292
 44 N    -0.16063   -0.00743   -0.13339
 45 N     0.00161   -0.00087    0.16405
 46 N     0.00015    0.00264   -0.16491
 47 N     0.16122   -0.00572   -0.18997
 48 Li   -0.00888   -0.07670   -0.01889

System changes: positions 

Initializing position-dependent things.

Density initialized from wave functions
     .----------------.  
    /|                |  
   / |                |  
  /  |                |  
 *   |                |  
 |   |                |  
 |   |                |  
 |   |                |  
 |   |                |  
 |   |                |  
 |   |                |  
 |   |                |  
 |   |                |  
 |   |                |  
 |   |                |  
 |   |                |  
 |   |                |  
 |   |                |  
 |   |                |  
 |   |                |  
 |   |                |  
 |   |                |  
 |   |                |  
 |   |                |  
 |   |                |  
 |   |   N       N Li |  
 |   |      Li       Li  
 |   | Li       Li N  |  
 |   |Li LLi  Li Li   |  
 |   |            Li  |  
 |Li |   N Li    N    |  
 |  Li      Li        |  
 |   | Li  N    Li N  |  
 |   |Li Li   Li Li   |  
 Li  |    Li          |  
 |Li |   N Li    N    |  
 |  Li      Li        |  
 |N  .-Li--N----Li----.  
 |  / Li Li   Li Li  /   
 Li/      Li        /    
 |/i       Li      /     
 *----------------*      

Positions:
   0 Li     1.753389    5.061850    0.000000    ( 0.0000,  0.0000,  0.0000)
   1 Li     0.000000    2.024928    0.000000    ( 0.0000,  0.0000,  0.0000)
   2 Li     3.506756    2.024928    0.000000    ( 0.0000,  0.0000,  0.0000)
   3 Li     5.260124    5.061850    0.000000    ( 0.0000,  0.0000,  0.0000)
   4 Li     1.753389    3.037256    1.946139    ( 0.0000,  0.0000,  0.0000)
   5 Li     0.000000    0.000334    1.946139    ( 0.0000,  0.0000,  0.0000)
   6 Li     3.506756    0.000334    1.946139    ( 0.0000,  0.0000,  0.0000)
   7 Li     5.260124    3.037256    1.946139    ( 0.0000,  0.0000,  0.0000)
   8 Li     1.753367    1.012631    1.946139    ( 0.0000,  0.0000,  0.0000)
   9 Li     0.000000    4.049553    1.946139    ( 0.0000,  0.0000,  0.0000)
  10 Li     3.506735    4.049553    1.946139    ( 0.0000,  0.0000,  0.0000)
  11 Li     5.260103    1.012631    1.946139    ( 0.0000,  0.0000,  0.0000)
  12 Li     1.753389    5.061850    3.920419    ( 0.0000,  0.0000,  0.0000)
  13 Li     0.000000    2.024928    3.920419    ( 0.0000,  0.0000,  0.0000)
  14 Li     3.506756    2.024928    3.920419    ( 0.0000,  0.0000,  0.0000)
  15 Li     5.260124    5.061850    3.920419    ( 0.0000,  0.0000,  0.0000)
  16 Li     1.751737    3.069785    5.870150    ( 0.0000,  0.0000,  0.0000)
  17 Li     0.000294    0.031711    5.948220    ( 0.0000,  0.0000,  0.0000)
  18 Li     3.506682    0.028516    5.818424    ( 0.0000,  0.0000,  0.0000)
  19 Li     5.261695    3.069396    5.869653    ( 0.0000,  0.0000,  0.0000)
  20 Li     1.751467    1.040446    5.883350    ( 0.0000,  0.0000,  0.0000)
  21 Li     0.000338    4.084142    5.918684    ( 0.0000,  0.0000,  0.0000)
  22 Li     3.506682    4.081560    5.827934    ( 0.0000,  0.0000,  0.0000)
  23 Li     5.262021    1.040844    5.883239    ( 0.0000,  0.0000,  0.0000)
  24 Li     1.839887    5.090230    7.931086    ( 0.0000,  0.0000,  0.0000)
  25 Li     0.003210    2.117832    7.886381    ( 0.0000,  0.0000,  0.0000)
  26 Li     3.502282    2.073142    7.789942    ( 0.0000,  0.0000,  0.0000)
  27 Li     5.177281    5.089757    7.926004    ( 0.0000,  0.0000,  0.0000)
  28 Li     1.771460    3.112938    9.736356    ( 0.0000,  0.0000,  0.0000)
  29 Li    -0.000766    0.037815    9.918382    ( 0.0000,  0.0000,  0.0000)
  30 Li     3.509131    0.089140   10.468278    ( 0.0000,  0.0000,  0.0000)
  31 Li     5.241802    3.113652    9.719941    ( 0.0000,  0.0000,  0.0000)
  32 Li     1.795211    1.029556    9.694254    ( 0.0000,  0.0000,  0.0000)
  33 Li    -0.001681    4.108815   10.173661    ( 0.0000,  0.0000,  0.0000)
  34 Li     3.508467    4.097079   10.332235    ( 0.0000,  0.0000,  0.0000)
  35 Li     5.217308    1.028357    9.677826    ( 0.0000,  0.0000,  0.0000)
  36 N      1.753389    5.061910    1.929076    ( 0.0000,  0.0000,  0.0000)
  37 N      0.000000    2.024989    1.929076    ( 0.0000,  0.0000,  0.0000)
  38 N      3.506756    2.024989    1.929076    ( 0.0000,  0.0000,  0.0000)
  39 N      5.260124    5.061910    1.929076    ( 0.0000,  0.0000,  0.0000)
  40 N      1.765542    5.095352    5.870720    ( 0.0000,  0.0000,  0.0000)
  41 N     -0.000013    2.062416    5.868279    ( 0.0000,  0.0000,  0.0000)
  42 N      3.506594    2.059835    5.827200    ( 0.0000,  0.0000,  0.0000)
  43 N      5.248368    5.095360    5.867005    ( 0.0000,  0.0000,  0.0000)
  44 N      1.778030    5.122802    9.922102    ( 0.0000,  0.0000,  0.0000)
  45 N     -0.001494    2.076803    9.829482    ( 0.0000,  0.0000,  0.0000)
  46 N      3.507291    2.084076    9.721342    ( 0.0000,  0.0000,  0.0000)
  47 N      5.236827    5.123024    9.929176    ( 0.0000,  0.0000,  0.0000)
  48 Li     6.993764    1.912974   11.704422    ( 0.0000,  0.0000,  0.0000)

Unit cell:
           periodic     x           y           z      points  spacing
  1. axis:    yes    7.013470    0.000000    0.000000    40     0.1753
  2. axis:    yes    0.000000    6.073843    0.000000    32     0.1898
  3. axis:    yes    0.000000    0.000000   29.936001   160     0.1871

  Lengths:   7.013470   6.073843  29.936001
  Angles:   90.000000  90.000000  90.000000

Effective grid spacing dv^(1/3) = 0.1840

                     log10-error:    total        iterations:
           time      wfs    density  energy       fermi  poisson
iter:   1  10:41:47  -2.45         -154.864656    5             
iter:   2  10:41:58  -3.59  -2.28  -154.852853    3             
iter:   3  10:42:10  -4.48  -2.48  -154.854416    3             
iter:   4  10:42:21  -3.82  -2.57  -154.852647    4             
iter:   5  10:42:32  -5.10  -2.40  -154.850936    3             
iter:   6  10:42:44  -5.16  -2.83  -154.850537    3             
iter:   7  10:42:55  -4.82  -2.53  -154.850973    3             
iter:   8  10:43:07  -5.59  -3.07  -154.850702    2             
iter:   9  10:43:18  -6.43  -3.18  -154.849986    2             
iter:  10  10:43:30  -5.70  -3.46  -154.849483    2             
iter:  11  10:43:41  -6.51  -3.24  -154.850077    2             
iter:  12  10:43:52  -7.65  -3.65  -154.849968    2             
iter:  13  10:44:04  -6.45  -3.77  -154.850069    2             
iter:  14  10:44:15  -7.36  -3.94  -154.849987    2             
iter:  15  10:44:27  -8.30  -4.21  -154.849961    2             

Converged after 15 iterations.

Dipole moment: (0.306505, -2.546988, 5.648641) |e|*Ang

Energy contributions relative to reference atoms: (reference = -25283.807400)

Kinetic:       +177.121216
Potential:     -129.103953
External:        +0.000000
XC:            -201.819509
Entropy (-ST):   -0.021028
Local:           -1.037202
--------------------------
Free energy:   -154.860475
Extrapolated:  -154.849961

Non-local vdW-DF-cx correlation energy: 15.294802
Semilocal GGA_X_LV_RPW86+LDA_C_PW energy: -1088.556573
(Not including atomic contributions)
Fermi level: -0.94736

Showing only first 2 kpts
 Kpt  Band  Eigenvalues  Occupancy
  0    46     -1.27720    0.13333
  0    47     -0.83812    0.00341
  0    48     -0.75350    0.00021
  0    49     -0.29104    0.00000

  1    46     -1.33036    0.13333
  1    47     -1.12996    0.13303
  1    48     -0.89320    0.01883
  1    49     -0.31367    0.00000


No gap

Forces in eV/Ang:
  0 Li    0.00018    0.00002   -0.10795
  1 Li   -0.00001    0.00006   -0.10761
  2 Li    0.00001    0.00000   -0.10703
  3 Li   -0.00021    0.00001   -0.10790
  4 Li    0.00301    0.00005    0.02864
  5 Li   -0.00013    0.00200    0.02795
  6 Li    0.00011    0.00370    0.02751
  7 Li   -0.00326    0.00030    0.02867
  8 Li    0.00343   -0.00018    0.02869
  9 Li   -0.00003   -0.00284    0.02716
 10 Li    0.00038   -0.00437    0.02900
 11 Li   -0.00325   -0.00036    0.02877
 12 Li   -0.07419    0.03457    0.07487
 13 Li    0.00004    0.00728    0.08719
 14 Li   -0.00016    0.02647   -0.14277
 15 Li    0.07443    0.03456    0.06132
 16 Li    0.01714    0.00395    0.00127
 17 Li   -0.00053   -0.02647    0.00649
 18 Li    0.00099    0.05202    0.10575
 19 Li   -0.01662    0.00501    0.00261
 20 Li    0.01341    0.01406    0.00914
 21 Li   -0.00105    0.05265   -0.00808
 22 Li    0.00074   -0.03115    0.10038
 23 Li   -0.01368    0.01294    0.00997
 24 Li    0.09898   -0.01280   -0.01612
 25 Li    0.00645   -0.00448   -0.19116
 26 Li   -0.00105   -0.00547    0.12091
 27 Li   -0.10353   -0.01190    0.01697
 28 Li    0.10798   -0.02028   -0.05356
 29 Li    0.00726   -0.06659   -0.01012
 30 Li   -0.00053    0.24643    0.06362
 31 Li   -0.11116   -0.02036   -0.03317
 32 Li    0.16219    0.07650   -0.04319
 33 Li    0.00675    0.05719    0.14138
 34 Li   -0.00001   -0.23285    0.03868
 35 Li   -0.16524    0.07818   -0.02660
 36 N    -0.00047    0.01587   -0.11228
 37 N     0.00013    0.01684   -0.11617
 38 N    -0.00006    0.01473   -0.14100
 39 N     0.00018    0.01572   -0.11285
 40 N    -0.09236   -0.01142    0.08645
 41 N     0.00220   -0.00895    0.14771
 42 N    -0.00120   -0.01734   -0.01462
 43 N     0.09258   -0.01121    0.11139
 44 N    -0.18023   -0.01967   -0.08594
 45 N     0.00334   -0.00869    0.13282
 46 N    -0.00211    0.00670   -0.07282
 47 N     0.17758   -0.01823   -0.16520
 48 Li   -0.00909   -0.08345   -0.00076

System changes: positions 

Initializing position-dependent things.

Density initialized from wave functions
     .----------------.  
    /|                |  
   / |                |  
  /  |                |  
 *   |                |  
 |   |                |  
 |   |                |  
 |   |                |  
 |   |                |  
 |   |                |  
 |   |                |  
 |   |                |  
 |   |                |  
 |   |                |  
 |   |                |  
 |   |                |  
 |   |                |  
 |   |                |  
 |   |                |  
 |   |                |  
 |   |                |  
 |   |                |  
 |   |                |  
 |   |                |  
 |   |                |  
 |   |   N       N Li |  
 |   |      Li       Li  
 |   | Li       Li N  |  
 |   |Li LLi  Li Li   |  
 |   |            Li  |  
 |Li |   N Li    N    |  
 |  Li      Li        |  
 |   | Li  N    Li N  |  
 |   |Li Li   Li Li   |  
 Li  |    Li          |  
 |Li |   N Li    N    |  
 |  Li      Li        |  
 |N  .-Li--N----Li----.  
 |  / Li Li   Li Li  /   
 Li/      Li        /    
 |/i       Li      /     
 *----------------*      

Positions:
   0 Li     1.753389    5.061850    0.000000    ( 0.0000,  0.0000,  0.0000)
   1 Li     0.000000    2.024928    0.000000    ( 0.0000,  0.0000,  0.0000)
   2 Li     3.506756    2.024928    0.000000    ( 0.0000,  0.0000,  0.0000)
   3 Li     5.260124    5.061850    0.000000    ( 0.0000,  0.0000,  0.0000)
   4 Li     1.753389    3.037256    1.946139    ( 0.0000,  0.0000,  0.0000)
   5 Li     0.000000    0.000334    1.946139    ( 0.0000,  0.0000,  0.0000)
   6 Li     3.506756    0.000334    1.946139    ( 0.0000,  0.0000,  0.0000)
   7 Li     5.260124    3.037256    1.946139    ( 0.0000,  0.0000,  0.0000)
   8 Li     1.753367    1.012631    1.946139    ( 0.0000,  0.0000,  0.0000)
   9 Li     0.000000    4.049553    1.946139    ( 0.0000,  0.0000,  0.0000)
  10 Li     3.506735    4.049553    1.946139    ( 0.0000,  0.0000,  0.0000)
  11 Li     5.260103    1.012631    1.946139    ( 0.0000,  0.0000,  0.0000)
  12 Li     1.753389    5.061850    3.920419    ( 0.0000,  0.0000,  0.0000)
  13 Li     0.000000    2.024928    3.920419    ( 0.0000,  0.0000,  0.0000)
  14 Li     3.506756    2.024928    3.920419    ( 0.0000,  0.0000,  0.0000)
  15 Li     5.260124    5.061850    3.920419    ( 0.0000,  0.0000,  0.0000)
  16 Li     1.754749    3.069449    5.858702    ( 0.0000,  0.0000,  0.0000)
  17 Li     0.000410    0.031743    5.953746    ( 0.0000,  0.0000,  0.0000)
  18 Li     3.506625    0.028087    5.829464    ( 0.0000,  0.0000,  0.0000)
  19 Li     5.258704    3.069012    5.857394    ( 0.0000,  0.0000,  0.0000)
  20 Li     1.754431    1.040167    5.872971    ( 0.0000,  0.0000,  0.0000)
  21 Li     0.000447    4.084160    5.920948    ( 0.0000,  0.0000,  0.0000)
  22 Li     3.506621    4.081690    5.840663    ( 0.0000,  0.0000,  0.0000)
  23 Li     5.259074    1.040612    5.872048    ( 0.0000,  0.0000,  0.0000)
  24 Li     1.828355    5.089908    7.934621    ( 0.0000,  0.0000,  0.0000)
  25 Li     0.002922    2.122238    7.869287    ( 0.0000,  0.0000,  0.0000)
  26 Li     3.502435    2.075699    7.776101    ( 0.0000,  0.0000,  0.0000)
  27 Li     5.189367    5.089476    7.932456    ( 0.0000,  0.0000,  0.0000)
  28 Li     1.770291    3.117103    9.719431    ( 0.0000,  0.0000,  0.0000)
  29 Li    -0.000371    0.028661    9.941179    ( 0.0000,  0.0000,  0.0000)
  30 Li     3.509180    0.102409   10.505437    ( 0.0000,  0.0000,  0.0000)
  31 Li     5.243238    3.117996    9.704185    ( 0.0000,  0.0000,  0.0000)
  32 Li     1.798326    1.029259    9.675351    ( 0.0000,  0.0000,  0.0000)
  33 Li    -0.001398    4.117533   10.227831    ( 0.0000,  0.0000,  0.0000)
  34 Li     3.508489    4.090049   10.355636    ( 0.0000,  0.0000,  0.0000)
  35 Li     5.214332    1.027872    9.660114    ( 0.0000,  0.0000,  0.0000)
  36 N      1.753389    5.061910    1.929076    ( 0.0000,  0.0000,  0.0000)
  37 N      0.000000    2.024989    1.929076    ( 0.0000,  0.0000,  0.0000)
  38 N      3.506756    2.024989    1.929076    ( 0.0000,  0.0000,  0.0000)
  39 N      5.260124    5.061910    1.929076    ( 0.0000,  0.0000,  0.0000)
  40 N      1.761645    5.094891    5.877094    ( 0.0000,  0.0000,  0.0000)
  41 N     -0.000076    2.062459    5.854589    ( 0.0000,  0.0000,  0.0000)
  42 N      3.506643    2.059496    5.819953    ( 0.0000,  0.0000,  0.0000)
  43 N      5.252409    5.094919    5.873915    ( 0.0000,  0.0000,  0.0000)
  44 N      1.774454    5.124937    9.929922    ( 0.0000,  0.0000,  0.0000)
  45 N     -0.001517    2.078264    9.827096    ( 0.0000,  0.0000,  0.0000)
  46 N      3.507648    2.086304    9.701553    ( 0.0000,  0.0000,  0.0000)
  47 N      5.241137    5.125328    9.939475    ( 0.0000,  0.0000,  0.0000)
  48 Li     6.990881    1.893455   11.695697    ( 0.0000,  0.0000,  0.0000)

Unit cell:
           periodic     x           y           z      points  spacing
  1. axis:    yes    7.013470    0.000000    0.000000    40     0.1753
  2. axis:    yes    0.000000    6.073843    0.000000    32     0.1898
  3. axis:    yes    0.000000    0.000000   29.936001   160     0.1871

  Lengths:   7.013470   6.073843  29.936001
  Angles:   90.000000  90.000000  90.000000

Effective grid spacing dv^(1/3) = 0.1840

                     log10-error:    total        iterations:
           time      wfs    density  energy       fermi  poisson
iter:   1  10:44:50  -2.60         -154.873977    4             
