
  ___ ___ ___ _ _ _  
 |   |   |_  | | | | 
 | | | | | . | | | | 
 |__ |  _|___|_____|  20.1.0
 |___|_|             

User:   jngwng01@n944027
Date:   Tue Sep  7 09:23:09 2021
Arch:   x86_64
Pid:    2070
Python: 3.8.5
gpaw:   /uls/7/gpaw-20.1.0/lib/python3.8/site-packages/gpaw-20.1.0-py3.8-linux-x86_64.egg/gpaw
_gpaw:  /uls/7/gpaw-20.1.0/lib/python3.8/site-packages/gpaw-20.1.0-py3.8-linux-x86_64.egg/
        _gpaw.cpython-38-x86_64-linux-gnu.so
ase:    /uls/7/gpaw-20.1.0/lib/python3.8/site-packages/ase-3.20.1-py3.8.egg/ase (version 3.20.1)
numpy:  /uls/7/gpaw-20.1.0/lib/python3.8/site-packages/numpy (version 1.19.2)
scipy:  /uls/7/gpaw-20.1.0/lib/python3.8/site-packages/scipy-1.5.2-py3.8-linux-x86_64.egg/scipy (version 1.5.2)
libxc:  4.3.4
units:  Angstrom and eV
cores: 16
OMP_NUM_THREADS: 1

Input parameters:
  convergence: {density: 0.0001,
                eigenstates: 1e-07}
  kpts: [5 5 1]
  mode: {ecut: 500.0,
         gammacentered: False,
         name: pw}
  occupations: {name: fermi-dirac,
                width: 0.05}
  xc: PBE

System changes: positions, numbers, cell, pbc, initial_charges, initial_magmoms 

Initialize ...

Li-setup:
  name: Lithium
  id: 830b4218f175192f93f959cfc0aad614
  Z: 3
  valence: 1
  core: 2
  charge: 0.0
  file: /uls/7/gpaw-20.1.0/setups/gpaw-setups-0.9.20000/Li.PBE.gz
  compensation charges: gauss, rc=0.33, lmax=2
  cutoffs: 1.91(filt), 2.55(core),
  valence states:
                energy  radius
    2s(1.00)    -2.874   1.058
    2p(0.00)    -1.090   1.058
    *s          24.337   1.058

  Using partial waves for Li as LCAO basis

N-setup:
  name: Nitrogen
  id: f7500608b86eaa90eef8b1d9a670dc53
  Z: 7
  valence: 5
  core: 2
  charge: 0.0
  file: /uls/7/gpaw-20.1.0/setups/gpaw-setups-0.9.20000/N.PBE.gz
  compensation charges: gauss, rc=0.18, lmax=2
  cutoffs: 1.11(filt), 0.96(core),
  valence states:
                energy  radius
    2s(2.00)   -18.583   0.603
    2p(3.00)    -7.089   0.529
    *s           8.629   0.603
    *p          20.123   0.529
    *d           0.000   0.577

  Using partial waves for N as LCAO basis

Reference energy: -33644.147259

Spin-paired calculation

Occupation numbers:
  Fermi-Dirac: width=0.0500 eV

Convergence criteria:
  Maximum total energy change: 0.0005 eV / electron
  Maximum integral of absolute density change: 0.0001 electrons
  Maximum integral of absolute eigenstate change: 1e-07 eV^2
  Maximum number of iterations: 333

Symmetries present (total): 1

  ( 1  0  0)
  ( 0  1  0)
  ( 0  0  1)

25 k-points: 5 x 5 x 1 Monkhorst-Pack grid
13 k-points in the irreducible part of the Brillouin zone
       k-points in crystal coordinates                weights
   0:     0.00000000    0.00000000    0.00000000          1/25
   1:     0.00000000    0.20000000    0.00000000          2/25
   2:     0.00000000    0.40000000    0.00000000          2/25
   3:     0.20000000   -0.40000000    0.00000000          2/25
   4:     0.20000000   -0.20000000    0.00000000          2/25
   5:     0.20000000    0.00000000    0.00000000          2/25
   6:     0.20000000    0.20000000    0.00000000          2/25
   7:     0.20000000    0.40000000    0.00000000          2/25
   8:     0.40000000   -0.40000000    0.00000000          2/25
   9:     0.40000000   -0.20000000    0.00000000          2/25
          ...
  12:     0.40000000    0.40000000    0.00000000          2/25

Wave functions: Plane wave expansion
  Cutoff energy: 500.000 eV
  Number of coefficients (min, max): 32263, 32394
  Pulay-stress correction: 0.000000 eV/Ang^3 (de/decut=0.000000)
  Using FFTW library
  ScaLapack parameters: grid=1x1, blocksize=None
  Wavefunction extrapolation:
    Improved wavefunction reuse through dual PAW basis 

Eigensolver
   Davidson(niter=2, smin=None, normalize=True) 

Densities:
  Coarse grid: 40*40*160 grid
  Fine grid: 80*80*320 grid
  Total Charge: 0.000000 

Density mixing:
  Method: separate
  Backend: pulay
  Linear mixing parameter: 0.05
  Mixing with 5 old densities
  Damping of long wave oscillations: 50 

Hamiltonian:
  XC and Coulomb potentials evaluated on a 80*80*320 grid
  Using the PBE Exchange-Correlation functional
 

XC parameters: PBE with 2 nearest neighbor stencil

Memory estimate:
  Process memory now: 240.85 MiB
  Calculator: 170.79 MiB
    Density: 56.64 MiB
      Arrays: 25.39 MiB
      Localized functions: 21.49 MiB
      Mixer: 9.77 MiB
    Hamiltonian: 17.13 MiB
      Arrays: 16.60 MiB
      XC: 0.00 MiB
      Poisson: 0.00 MiB
      vbar: 0.52 MiB
    Wavefunctions: 97.02 MiB
      Arrays psit_nG: 40.53 MiB
      Eigensolver: 44.03 MiB
      Projections: 0.28 MiB
      Projectors: 2.10 MiB
      PW-descriptor: 10.07 MiB

Total number of cores used: 16
Parallelization over k-points: 8
Domain decomposition: 1 x 1 x 2
                      2 x 2 x 4 (xc only)

Number of atoms: 65
Number of atomic orbitals: 260
Number of bands in calculation: 82
Number of valence electrons: 129
Bands to converge: occupied

... initialized

Initializing position-dependent things.

Density initialized from atomic densities
Creating initial wave functions:
  82 bands from LCAO basis set

                                         
                                         
                                         
                                         
                                         
                     Li                  
           Li      Li                    
             Li        N  Li             
                  Li Li                  
              LiN   Li LiN               
                            Li           
           Li   Li Li    Li              
              N   Li   N  Li             
             Li      Li                  
              LiN   Li LiN  Li           
                                         
           Li N Li Li  N Li              
                  Li      Li             
             Li N    Li  N               
              Li    Li Li   Li           
                                         
           Li N Li Li  N Li              
                  Li      Li             
             Li N    Li  N               
              Li    Li Li   Li           
                                         
                Li       Li              
                                         
                                         
                                         
                                         

Positions:
   0 Li     1.753189    1.012426    1.530029    ( 0.0000,  0.0000,  0.0000)
   1 Li    -0.000191    4.049369    1.530029    ( 0.0000,  0.0000,  0.0000)
   2 Li     5.259899    1.012426    1.530029    ( 0.0000,  0.0000,  0.0000)
   3 Li     3.506519    4.049369    1.530029    ( 0.0000,  0.0000,  0.0000)
   4 Li     1.748834    1.015586   13.263996    ( 0.0000,  0.0000,  0.0000)
   5 Li     0.006509    4.051966   13.303827    ( 0.0000,  0.0000,  0.0000)
   6 Li     5.261047    1.005267   13.303692    ( 0.0000,  0.0000,  0.0000)
   7 Li     3.498026    4.052564   13.206879    ( 0.0000,  0.0000,  0.0000)
   8 Li     3.522238   -0.028892   15.814856    ( 0.0000,  0.0000,  0.0000)
   9 Li     1.677289    3.028318   15.083456    ( 0.0000,  0.0000,  0.0000)
  10 Li     6.991638    0.046279   15.123005    ( 0.0000,  0.0000,  0.0000)
  11 Li     5.336118    3.016143   15.382727    ( 0.0000,  0.0000,  0.0000)
  12 Li    -0.040356    2.028745   15.815219    ( 0.0000,  0.0000,  0.0000)
  13 Li    -1.703137    5.068960   15.110052    ( 0.0000,  0.0000,  0.0000)
  14 Li     3.533404    1.953023   15.067387    ( 0.0000,  0.0000,  0.0000)
  15 Li     1.698520    5.114901   15.409180    ( 0.0000,  0.0000,  0.0000)
  16 Li     3.506465    0.000182    3.465092    ( 0.0000,  0.0000,  0.0000)
  17 Li     1.753085    3.037125    3.465092    ( 0.0000,  0.0000,  0.0000)
  18 Li     7.013175    0.000182    3.465092    ( 0.0000,  0.0000,  0.0000)
  19 Li     5.259795    3.037125    3.465092    ( 0.0000,  0.0000,  0.0000)
  20 Li    -0.000262    2.024791    3.465092    ( 0.0000,  0.0000,  0.0000)
  21 Li    -1.753642    5.061734    3.465092    ( 0.0000,  0.0000,  0.0000)
  22 Li     3.506448    2.024791    3.465092    ( 0.0000,  0.0000,  0.0000)
  23 Li     1.753068    5.061734    3.465092    ( 0.0000,  0.0000,  0.0000)
  24 Li     1.753084    1.012487    5.431887    ( 0.0000,  0.0000,  0.0000)
  25 Li    -0.000296    4.049430    5.431887    ( 0.0000,  0.0000,  0.0000)
  26 Li     5.259794    1.012487    5.431887    ( 0.0000,  0.0000,  0.0000)
  27 Li     3.506414    4.049430    5.431887    ( 0.0000,  0.0000,  0.0000)
  28 Li     3.506429    0.000182    7.378027    ( 0.0000,  0.0000,  0.0000)
  29 Li     1.753049    3.037125    7.378027    ( 0.0000,  0.0000,  0.0000)
  30 Li     7.013139    0.000182    7.378027    ( 0.0000,  0.0000,  0.0000)
  31 Li     5.259759    3.037125    7.378027    ( 0.0000,  0.0000,  0.0000)
  32 Li    -0.000297    2.024791    7.378027    ( 0.0000,  0.0000,  0.0000)
  33 Li    -1.753677    5.061734    7.378027    ( 0.0000,  0.0000,  0.0000)
  34 Li     3.506413    2.024791    7.378027    ( 0.0000,  0.0000,  0.0000)
  35 Li     1.753033    5.061734    7.378027    ( 0.0000,  0.0000,  0.0000)
  36 Li     1.752539    1.013407    9.341359    ( 0.0000,  0.0000,  0.0000)
  37 Li     0.001143    4.049807    9.352938    ( 0.0000,  0.0000,  0.0000)
  38 Li     5.259840    1.011254    9.352945    ( 0.0000,  0.0000,  0.0000)
  39 Li     3.503843    4.050383    9.327244    ( 0.0000,  0.0000,  0.0000)
  40 Li     3.505787   -0.000068   11.362738    ( 0.0000,  0.0000,  0.0000)
  41 Li     1.749502    3.037101   11.266123    ( 0.0000,  0.0000,  0.0000)
  42 Li     7.011833    0.003123   11.267314    ( 0.0000,  0.0000,  0.0000)
  43 Li     5.261769    3.036702   11.306262    ( 0.0000,  0.0000,  0.0000)
  44 Li    -0.003212    2.025871   11.362745    ( 0.0000,  0.0000,  0.0000)
  45 Li    -1.752168    5.062541   11.268042    ( 0.0000,  0.0000,  0.0000)
  46 Li     3.506915    2.022967   11.266889    ( 0.0000,  0.0000,  0.0000)
  47 Li     1.749499    5.064529   11.304859    ( 0.0000,  0.0000,  0.0000)
  48 N      1.753084    1.012487    3.439048    ( 0.0000,  0.0000,  0.0000)
  49 N     -0.000296    4.049430    3.439048    ( 0.0000,  0.0000,  0.0000)
  50 N      5.259794    1.012487    3.439048    ( 0.0000,  0.0000,  0.0000)
  51 N      3.506414    4.049430    3.439048    ( 0.0000,  0.0000,  0.0000)
  52 N      1.753031    1.012517    7.360963    ( 0.0000,  0.0000,  0.0000)
  53 N     -0.000349    4.049460    7.360963    ( 0.0000,  0.0000,  0.0000)
  54 N      5.259741    1.012517    7.360963    ( 0.0000,  0.0000,  0.0000)
  55 N      3.506361    4.049460    7.360963    ( 0.0000,  0.0000,  0.0000)
  56 N      1.751875    1.013047   11.283100    ( 0.0000,  0.0000,  0.0000)
  57 N     -0.001178    4.050249   11.308199    ( 0.0000,  0.0000,  0.0000)
  58 N      5.259089    1.012716   11.308183    ( 0.0000,  0.0000,  0.0000)
  59 N      3.505109    4.050353   11.249757    ( 0.0000,  0.0000,  0.0000)
  60 N      1.746808    1.008236   15.221611    ( 0.0000,  0.0000,  0.0000)
  61 N     -0.013379    4.054705   15.285779    ( 0.0000,  0.0000,  0.0000)
  62 N      5.264566    1.007770   15.285497    ( 0.0000,  0.0000,  0.0000)
  63 N      3.515006    4.066241   15.103192    ( 0.0000,  0.0000,  0.0000)
  64 Li     3.037755    3.161844   17.104284    ( 0.0000,  0.0000,  0.0000)

Unit cell:
           periodic     x           y           z      points  spacing
  1. axis:    yes    7.013420    0.000000    0.000000    40     0.1518
  2. axis:    yes   -3.506760    6.073886    0.000000    40     0.1518
  3. axis:    yes    0.000000    0.000000   29.936001   160     0.1871

  Lengths:   7.013420   7.013520  29.936001
  Angles:   90.000000  90.000000 120.000000

Effective grid spacing dv^(1/3) = 0.1708

                     log10-error:    total        iterations:
           time      wfs    density  energy       fermi  poisson
iter:   1  09:24:48                -274.989470    4             
iter:   2  09:25:29  -0.99  -0.51  -262.522362    5             
iter:   3  09:26:09  -0.41  -0.57  -279.133633    37            
iter:   4  09:26:51  -1.86  -0.52  -251.440671    31            
iter:   5  09:27:32  -2.71  -0.72  -249.066893    4             
iter:   6  09:28:15  -1.47  -0.72  -245.036119    3             
iter:   7  09:28:57  -1.45  -0.79  -239.927407    33            
iter:   8  09:29:38  -1.51  -0.89  -238.124983    6             
iter:   9  09:30:19  -2.24  -0.97  -237.607097    32            
iter:  10  09:31:00  -1.82  -0.95  -237.434750    31            
iter:  11  09:31:41  -1.55  -0.92  -243.266537    36            
iter:  12  09:32:22  -2.41  -0.83  -247.613700    4             
iter:  13  09:33:04  -1.79  -0.80  -235.920206    30            
iter:  14  09:33:45  -2.31  -1.04  -238.165782    33            
iter:  15  09:34:27  -2.59  -0.96  -235.375114    33            
iter:  16  09:35:08  -2.50  -1.21  -235.756964    3             
iter:  17  09:35:49  -2.16  -1.18  -235.667003    3             
iter:  18  09:36:31  -2.90  -1.27  -235.783903    30            
iter:  19  09:37:11  -2.14  -1.36  -235.631156    31            
iter:  20  09:37:53  -2.71  -1.56  -235.089882    29            
iter:  21  09:38:34  -2.67  -1.65  -234.657085    3             
iter:  22  09:39:16  -3.31  -1.63  -234.885537    4             
iter:  23  09:39:58  -3.20  -1.57  -234.506096    5             
iter:  24  09:40:38  -4.25  -1.93  -234.492003    3             
iter:  25  09:41:21  -4.54  -1.94  -234.456265    3             
iter:  26  09:42:02  -3.34  -1.97  -234.526431    5             
iter:  27  09:42:44  -3.71  -1.89  -234.393548    4             
iter:  28  09:43:25  -4.14  -2.03  -234.434108    3             
iter:  29  09:44:05  -3.96  -1.89  -234.393825    3             
iter:  30  09:44:47  -3.83  -2.15  -234.497986    3             
iter:  31  09:45:28  -4.02  -1.84  -234.434345    4             
iter:  32  09:46:08  -3.88  -1.95  -234.391553    4             
iter:  33  09:46:49  -4.25  -2.22  -234.381571    3             
iter:  34  09:47:30  -4.37  -2.40  -234.370285    3             
iter:  35  09:48:11  -5.20  -2.72  -234.368503    2             
iter:  36  09:48:52  -5.00  -2.85  -234.366170    3             
iter:  37  09:49:33  -5.95  -2.92  -234.367911    2             
iter:  38  09:50:14  -5.77  -2.99  -234.366054    3             
iter:  39  09:50:56  -5.96  -3.01  -234.366856    2             
iter:  40  09:51:36  -5.78  -3.28  -234.367412    2             
iter:  41  09:52:19  -7.00  -3.49  -234.367020    2             
iter:  42  09:52:59  -6.64  -3.62  -234.367294    2             
iter:  43  09:53:41  -7.57  -3.68  -234.367272    2             
iter:  44  09:54:22  -6.83  -3.75  -234.367116    2             
iter:  45  09:55:03  -7.75  -3.95  -234.367099    2             
iter:  46  09:55:43  -8.00  -4.01  -234.367171    2             

Converged after 46 iterations.

Dipole moment: (-2.610128, 1.483788, -11.344399) |e|*Ang

Energy contributions relative to reference atoms: (reference = -33644.147259)

Kinetic:       +256.668700
Potential:     -189.363415
External:        +0.000000
XC:            -300.367335
Entropy (-ST):   -0.075262
Local:           -1.267491
--------------------------
Free energy:   -234.404803
Extrapolated:  -234.367171

Fermi level: -0.26143

Showing only first 2 kpts
 Kpt  Band  Eigenvalues  Occupancy
  0    62     -0.53776    0.07968
  0    63     -0.06070    0.00142
  0    64     -0.01889    0.00062
  0    65      0.19340    0.00001

  1    62     -0.59830    0.15981
  1    63     -0.30844    0.11507
  1    64     -0.14400    0.01395
  1    65      0.36348    0.00000



Forces in eV/Ang:
  0 Li   -0.00007    0.00006   -0.04692
  1 Li   -0.00007    0.00005   -0.04710
  2 Li   -0.00008    0.00005   -0.04711
  3 Li   -0.00008    0.00004   -0.04683
  4 Li   -0.00488   -0.00643    0.01423
  5 Li   -0.01562    0.00784    0.11609
  6 Li    0.00920    0.00586    0.11640
  7 Li    0.01110    0.00070   -0.03086
  8 Li   -0.45511    0.29773    0.24722
  9 Li   -0.01461   -0.06245   -0.46907
 10 Li    0.21538   -0.12869    0.14999
 11 Li   -0.56150    0.17381   -0.21303
 12 Li    0.49970   -0.25156    0.26335
 13 Li   -0.23345    0.11693    0.15430
 14 Li   -0.05064   -0.03696   -0.49035
 15 Li    0.40235   -0.37383   -0.20049
 16 Li    0.00005   -0.00015   -0.03936
 17 Li   -0.00002   -0.00007   -0.03945
 18 Li   -0.00004   -0.00012   -0.03950
 19 Li    0.00003   -0.00012   -0.03942
 20 Li   -0.00012    0.00010   -0.03936
 21 Li   -0.00005    0.00003   -0.03954
 22 Li   -0.00002    0.00007   -0.03950
 23 Li   -0.00009    0.00008   -0.03933
 24 Li    0.00001    0.00015   -0.04714
 25 Li    0.00021   -0.00001   -0.04478
 26 Li   -0.00003   -0.00010   -0.04479
 27 Li   -0.00022   -0.00003   -0.04959
 28 Li    0.00148   -0.00101    0.00949
 29 Li   -0.00348    0.00012    0.00035
 30 Li   -0.00166    0.00282    0.00213
 31 Li    0.00295   -0.00161    0.00861
 32 Li   -0.00249    0.00148    0.00948
 33 Li    0.00299   -0.00037    0.00462
 34 Li    0.00207   -0.00230    0.00278
 35 Li   -0.00376    0.00235    0.00371
 36 Li   -0.00056   -0.00377    0.00765
 37 Li   -0.00680    0.00043    0.01747
 38 Li   -0.00052    0.00396    0.01725
 39 Li    0.00711   -0.00019   -0.01529
 40 Li   -0.00426    0.00855    0.00714
 41 Li    0.00953    0.00285    0.01655
 42 Li    0.00049   -0.00968   -0.00123
 43 Li   -0.01961    0.00552    0.02151
 44 Li    0.01272   -0.00048    0.00706
 45 Li   -0.00936   -0.00427    0.00446
 46 Li   -0.00349    0.01050    0.02110
 47 Li    0.01277   -0.01409    0.00783
 48 N    -0.00022    0.00010    0.06651
 49 N    -0.00025    0.00017    0.07736
 50 N    -0.00021    0.00026    0.07734
 51 N    -0.00005    0.00029    0.06528
 52 N    -0.00004    0.00104    0.03834
 53 N     0.00165   -0.00008    0.07690
 54 N    -0.00012   -0.00105    0.07710
 55 N    -0.00209    0.00006   -0.01740
 56 N    -0.00556   -0.00547   -0.01046
 57 N     0.00334    0.00131   -0.03348
 58 N     0.00095   -0.00477   -0.03190
 59 N     0.00080    0.00712   -0.05738
 60 N     0.25527    0.43220    0.03892
 61 N     0.33768   -0.04914    0.04073
 62 N    -0.19781    0.22272    0.06281
 63 N    -0.39228   -0.70016    1.04332
 64 Li    0.19646    0.35481   -0.69260

System changes: positions 

Initializing position-dependent things.

Density initialized from wave functions
                                         
                                         
                                         
                                         
                                         
                     Li                  
           Li      Li                    
             Li        N  Li             
                  Li Li                  
              LiN   Li LiN               
                            Li           
           Li   Li Li    Li              
              N   Li   N  Li             
             Li      Li                  
              LiN   Li LiN  Li           
                                         
           Li N Li Li  N Li              
                  Li      Li             
             Li N    Li  N               
              Li    Li Li   Li           
                                         
           Li N Li Li  N Li              
                  Li      Li             
             Li N    Li  N               
              Li    Li Li   Li           
                                         
                Li       Li              
                                         
                                         
                                         
                                         

Positions:
   0 Li     1.753189    1.012426    1.530029    ( 0.0000,  0.0000,  0.0000)
   1 Li    -0.000191    4.049369    1.530029    ( 0.0000,  0.0000,  0.0000)
   2 Li     5.259899    1.012426    1.530029    ( 0.0000,  0.0000,  0.0000)
   3 Li     3.506519    4.049369    1.530029    ( 0.0000,  0.0000,  0.0000)
   4 Li     1.748776    1.015493   13.263940    ( 0.0000,  0.0000,  0.0000)
   5 Li     0.006268    4.052077   13.305476    ( 0.0000,  0.0000,  0.0000)
   6 Li     5.261179    1.005373   13.305346    ( 0.0000,  0.0000,  0.0000)
   7 Li     3.498201    4.052564   13.206689    ( 0.0000,  0.0000,  0.0000)
   8 Li     3.515889   -0.024808   15.816596    ( 0.0000,  0.0000,  0.0000)
   9 Li     1.677147    3.027809   15.076429    ( 0.0000,  0.0000,  0.0000)
  10 Li     6.994586    0.044208   15.125114    ( 0.0000,  0.0000,  0.0000)
  11 Li     5.327980    3.018762   15.381516    ( 0.0000,  0.0000,  0.0000)
  12 Li    -0.033421    2.025191   15.817195    ( 0.0000,  0.0000,  0.0000)
  13 Li    -1.706612    5.070398   15.112254    ( 0.0000,  0.0000,  0.0000)
  14 Li     3.532984    1.952756   15.060074    ( 0.0000,  0.0000,  0.0000)
  15 Li     1.704432    5.109533   15.408077    ( 0.0000,  0.0000,  0.0000)
  16 Li     3.506465    0.000182    3.465092    ( 0.0000,  0.0000,  0.0000)
  17 Li     1.753085    3.037125    3.465092    ( 0.0000,  0.0000,  0.0000)
  18 Li     7.013175    0.000182    3.465092    ( 0.0000,  0.0000,  0.0000)
  19 Li     5.259795    3.037125    3.465092    ( 0.0000,  0.0000,  0.0000)
  20 Li    -0.000262    2.024791    3.465092    ( 0.0000,  0.0000,  0.0000)
  21 Li    -1.753642    5.061734    3.465092    ( 0.0000,  0.0000,  0.0000)
  22 Li     3.506448    2.024791    3.465092    ( 0.0000,  0.0000,  0.0000)
  23 Li     1.753068    5.061734    3.465092    ( 0.0000,  0.0000,  0.0000)
  24 Li     1.753084    1.012487    5.431887    ( 0.0000,  0.0000,  0.0000)
  25 Li    -0.000296    4.049430    5.431887    ( 0.0000,  0.0000,  0.0000)
  26 Li     5.259794    1.012487    5.431887    ( 0.0000,  0.0000,  0.0000)
  27 Li     3.506414    4.049430    5.431887    ( 0.0000,  0.0000,  0.0000)
  28 Li     3.506429    0.000182    7.378027    ( 0.0000,  0.0000,  0.0000)
  29 Li     1.753049    3.037125    7.378027    ( 0.0000,  0.0000,  0.0000)
  30 Li     7.013139    0.000182    7.378027    ( 0.0000,  0.0000,  0.0000)
  31 Li     5.259759    3.037125    7.378027    ( 0.0000,  0.0000,  0.0000)
  32 Li    -0.000297    2.024791    7.378027    ( 0.0000,  0.0000,  0.0000)
  33 Li    -1.753677    5.061734    7.378027    ( 0.0000,  0.0000,  0.0000)
  34 Li     3.506413    2.024791    7.378027    ( 0.0000,  0.0000,  0.0000)
  35 Li     1.753033    5.061734    7.378027    ( 0.0000,  0.0000,  0.0000)
  36 Li     1.752533    1.013355    9.341397    ( 0.0000,  0.0000,  0.0000)
  37 Li     0.001042    4.049812    9.353188    ( 0.0000,  0.0000,  0.0000)
  38 Li     5.259831    1.011315    9.353192    ( 0.0000,  0.0000,  0.0000)
  39 Li     3.503949    4.050376    9.327091    ( 0.0000,  0.0000,  0.0000)
  40 Li     3.505735    0.000048   11.362595    ( 0.0000,  0.0000,  0.0000)
  41 Li     1.749645    3.037155   11.266356    ( 0.0000,  0.0000,  0.0000)
  42 Li     7.011835    0.002973   11.267297    ( 0.0000,  0.0000,  0.0000)
  43 Li     5.261486    3.036786   11.306804    ( 0.0000,  0.0000,  0.0000)
  44 Li    -0.003035    2.025866   11.362602    ( 0.0000,  0.0000,  0.0000)
  45 Li    -1.752308    5.062471   11.268105    ( 0.0000,  0.0000,  0.0000)
  46 Li     3.506872    2.023129   11.267184    ( 0.0000,  0.0000,  0.0000)
  47 Li     1.749690    5.064327   11.305210    ( 0.0000,  0.0000,  0.0000)
  48 N      1.753084    1.012487    3.439048    ( 0.0000,  0.0000,  0.0000)
  49 N     -0.000296    4.049430    3.439048    ( 0.0000,  0.0000,  0.0000)
  50 N      5.259794    1.012487    3.439048    ( 0.0000,  0.0000,  0.0000)
  51 N      3.506414    4.049430    3.439048    ( 0.0000,  0.0000,  0.0000)
  52 N      1.753031    1.012517    7.360963    ( 0.0000,  0.0000,  0.0000)
  53 N     -0.000349    4.049460    7.360963    ( 0.0000,  0.0000,  0.0000)
  54 N      5.259741    1.012517    7.360963    ( 0.0000,  0.0000,  0.0000)
  55 N      3.506361    4.049460    7.360963    ( 0.0000,  0.0000,  0.0000)
  56 N      1.751797    1.012969   11.282790    ( 0.0000,  0.0000,  0.0000)
  57 N     -0.001130    4.050268   11.307716    ( 0.0000,  0.0000,  0.0000)
  58 N      5.259105    1.012649   11.307722    ( 0.0000,  0.0000,  0.0000)
  59 N      3.505123    4.050455   11.249081    ( 0.0000,  0.0000,  0.0000)
  60 N      1.750432    1.014362   15.221702    ( 0.0000,  0.0000,  0.0000)
  61 N     -0.008571    4.054038   15.286350    ( 0.0000,  0.0000,  0.0000)
  62 N      5.261792    1.010946   15.286383    ( 0.0000,  0.0000,  0.0000)
  63 N      3.509385    4.056207   15.118667    ( 0.0000,  0.0000,  0.0000)
  64 Li     3.037221    3.161330   17.095037    ( 0.0000,  0.0000,  0.0000)

Unit cell:
           periodic     x           y           z      points  spacing
  1. axis:    yes    7.013420    0.000000    0.000000    40     0.1518
  2. axis:    yes   -3.506760    6.073886    0.000000    40     0.1518
  3. axis:    yes    0.000000    0.000000   29.936001   160     0.1871

  Lengths:   7.013420   7.013520  29.936001
  Angles:   90.000000  90.000000 120.000000

Effective grid spacing dv^(1/3) = 0.1708

                     log10-error:    total        iterations:
           time      wfs    density  energy       fermi  poisson
iter:   1  10:02:38  -3.38         -234.434099    3             
iter:   2  10:03:20  -4.51  -2.64  -234.449101    3             
iter:   3  10:04:01  -5.38  -2.45  -234.433439    2             
iter:   4  10:04:42  -4.39  -2.87  -234.431001    2             
iter:   5  10:05:23  -5.69  -3.16  -234.431472    2             
iter:   6  10:06:05  -5.07  -3.20  -234.429570    3             
iter:   7  10:06:46  -5.48  -3.16  -234.431461    2             
iter:   8  10:07:28  -6.60  -3.32  -234.430538    2             
iter:   9  10:08:10  -5.52  -3.53  -234.430320    2             
iter:  10  10:08:51  -6.74  -3.71  -234.430461    2             
iter:  11  10:09:33  -6.89  -3.99  -234.430649    2             
iter:  12  10:10:15  -7.08  -3.98  -234.430599    2             
iter:  13  10:10:57  -7.61  -4.21  -234.430589    2             

Converged after 13 iterations.

Dipole moment: (-2.602543, 1.483760, -11.356331) |e|*Ang

Energy contributions relative to reference atoms: (reference = -33644.147259)

Kinetic:       +256.523066
Potential:     -189.268068
External:        +0.000000
XC:            -300.360576
Entropy (-ST):   -0.075050
Local:           -1.287486
--------------------------
Free energy:   -234.468115
Extrapolated:  -234.430589

Fermi level: -0.26332

Showing only first 2 kpts
 Kpt  Band  Eigenvalues  Occupancy
  0    62     -0.54129    0.07969
  0    63     -0.05624    0.00125
  0    64     -0.02567    0.00068
  0    65      0.18885    0.00001

  1    62     -0.59771    0.15980
  1    63     -0.30813    0.11362
  1    64     -0.14900    0.01476
  1    65      0.36081    0.00000



Forces in eV/Ang:
  0 Li   -0.00007    0.00006   -0.04787
  1 Li   -0.00007    0.00005   -0.04800
  2 Li   -0.00008    0.00005   -0.04800
  3 Li   -0.00008    0.00005   -0.04779
  4 Li   -0.00543   -0.00705    0.01083
  5 Li   -0.01761    0.00988    0.10308
  6 Li    0.01253    0.00395    0.10420
  7 Li    0.01008    0.00045    0.03592
  8 Li   -0.39337    0.27043    0.24262
  9 Li   -0.01398   -0.06602   -0.44898
 10 Li    0.17687   -0.10836    0.15792
 11 Li   -0.47471    0.14834   -0.18235
 12 Li    0.44204   -0.21014    0.25709
 13 Li   -0.19319    0.09422    0.16277
 14 Li   -0.05377   -0.04056   -0.46854
 15 Li    0.34260   -0.31799   -0.17147
 16 Li    0.00006   -0.00015   -0.04049
 17 Li   -0.00003   -0.00007   -0.04060
 18 Li   -0.00004   -0.00012   -0.04064
 19 Li    0.00004   -0.00013   -0.04057
 20 Li   -0.00013    0.00010   -0.04049
 21 Li   -0.00005    0.00003   -0.04068
 22 Li   -0.00002    0.00007   -0.04065
 23 Li   -0.00010    0.00009   -0.04048
 24 Li    0.00001    0.00015   -0.04720
 25 Li    0.00021   -0.00001   -0.04477
 26 Li   -0.00003   -0.00010   -0.04478
 27 Li   -0.00021   -0.00003   -0.04972
 28 Li    0.00162   -0.00104    0.01018
 29 Li   -0.00368    0.00011    0.00096
 30 Li   -0.00180    0.00302    0.00250
 31 Li    0.00315   -0.00178    0.00907
 32 Li   -0.00255    0.00158    0.01018
 33 Li    0.00323   -0.00036    0.00489
 34 Li    0.00213   -0.00248    0.00329
 35 Li   -0.00400    0.00243    0.00436
 36 Li   -0.00037   -0.00339    0.00560
 37 Li   -0.00645    0.00031    0.01390
 38 Li   -0.00067    0.00395    0.01377
 39 Li    0.00673   -0.00047   -0.01756
 40 Li   -0.00283    0.00708    0.00755
 41 Li    0.00652    0.00185    0.01452
 42 Li   -0.00054   -0.00620   -0.00280
 43 Li   -0.01473    0.00317    0.01965
 44 Li    0.01032    0.00021    0.00736
 45 Li   -0.00570   -0.00319    0.00260
 46 Li   -0.00291    0.00716    0.01875
 47 Li    0.00871   -0.01120    0.00665
 48 N    -0.00021    0.00013    0.07073
 49 N    -0.00025    0.00018    0.08166
 50 N    -0.00019    0.00024    0.08171
 51 N    -0.00008    0.00024    0.06891
 52 N    -0.00022    0.00070    0.03477
 53 N     0.00142    0.00009    0.07349
 54 N     0.00011   -0.00111    0.07370
 55 N    -0.00182    0.00044   -0.02096
 56 N    -0.00329   -0.00259   -0.00975
 57 N     0.00348    0.00016   -0.02795
 58 N    -0.00063   -0.00302   -0.02627
 59 N     0.00001    0.00397   -0.04416
 60 N     0.20796    0.35022    0.01643
 61 N     0.24942   -0.03451    0.02648
 62 N    -0.14436    0.16565    0.04642
 63 N    -0.33789   -0.60497    0.88555
 64 Li    0.19163    0.34695   -0.68714

System changes: positions 

Initializing position-dependent things.

Density initialized from wave functions
                                         
                                         
                                         
                                         
                                         
                     Li                  
           Li      Li                    
             Li       N   Li             
                  Li Li                  
              LiN   Li LiN  Li           
                                         
           Li   Li Li    Li              
              N   Li   N  Li             
             Li      Li                  
              LiN   Li LiN  Li           
                                         
           Li N Li Li  N Li              
                  Li      Li             
             Li N    Li  N               
              Li    Li Li   Li           
           Li      Li                    
              N Li     N Li              
             Li   Li Li   Li             
                N        N               
              Li    Li Li   Li           
                                         
                Li       Li              
                                         
                                         
                                         
                                         

Positions:
   0 Li     1.753189    1.012426    1.530029    ( 0.0000,  0.0000,  0.0000)
   1 Li    -0.000191    4.049369    1.530029    ( 0.0000,  0.0000,  0.0000)
   2 Li     5.259899    1.012426    1.530029    ( 0.0000,  0.0000,  0.0000)
   3 Li     3.506519    4.049369    1.530029    ( 0.0000,  0.0000,  0.0000)
   4 Li     1.748232    1.014659   13.263207    ( 0.0000,  0.0000,  0.0000)
   5 Li     0.004069    4.053218   13.317456    ( 0.0000,  0.0000,  0.0000)
   6 Li     5.262639    1.005999   13.317449    ( 0.0000,  0.0000,  0.0000)
   7 Li     3.499508    4.052543   13.212578    ( 0.0000,  0.0000,  0.0000)
   8 Li     3.470992    0.005556   15.830667    ( 0.0000,  0.0000,  0.0000)
   9 Li     1.676149    3.023157   15.021620    ( 0.0000,  0.0000,  0.0000)
  10 Li     7.014339    0.029720   15.143160    ( 0.0000,  0.0000,  0.0000)
  11 Li     5.271386    3.037264   15.374734    ( 0.0000,  0.0000,  0.0000)
  12 Li     0.016801    2.000869   15.832995    ( 0.0000,  0.0000,  0.0000)
  13 Li    -1.730346    5.079667   15.131107    ( 0.0000,  0.0000,  0.0000)
  14 Li     3.529090    1.950200   15.003142    ( 0.0000,  0.0000,  0.0000)
  15 Li     1.745932    5.072050   15.401994    ( 0.0000,  0.0000,  0.0000)
  16 Li     3.506465    0.000182    3.465092    ( 0.0000,  0.0000,  0.0000)
  17 Li     1.753085    3.037125    3.465092    ( 0.0000,  0.0000,  0.0000)
  18 Li     7.013175    0.000182    3.465092    ( 0.0000,  0.0000,  0.0000)
  19 Li     5.259795    3.037125    3.465092    ( 0.0000,  0.0000,  0.0000)
  20 Li    -0.000262    2.024791    3.465092    ( 0.0000,  0.0000,  0.0000)
  21 Li    -1.753642    5.061734    3.465092    ( 0.0000,  0.0000,  0.0000)
  22 Li     3.506448    2.024791    3.465092    ( 0.0000,  0.0000,  0.0000)
  23 Li     1.753068    5.061734    3.465092    ( 0.0000,  0.0000,  0.0000)
  24 Li     1.753084    1.012487    5.431887    ( 0.0000,  0.0000,  0.0000)
  25 Li    -0.000296    4.049430    5.431887    ( 0.0000,  0.0000,  0.0000)
  26 Li     5.259794    1.012487    5.431887    ( 0.0000,  0.0000,  0.0000)
  27 Li     3.506414    4.049430    5.431887    ( 0.0000,  0.0000,  0.0000)
  28 Li     3.506429    0.000182    7.378027    ( 0.0000,  0.0000,  0.0000)
  29 Li     1.753049    3.037125    7.378027    ( 0.0000,  0.0000,  0.0000)
  30 Li     7.013139    0.000182    7.378027    ( 0.0000,  0.0000,  0.0000)
  31 Li     5.259759    3.037125    7.378027    ( 0.0000,  0.0000,  0.0000)
  32 Li    -0.000297    2.024791    7.378027    ( 0.0000,  0.0000,  0.0000)
  33 Li    -1.753677    5.061734    7.378027    ( 0.0000,  0.0000,  0.0000)
  34 Li     3.506413    2.024791    7.378027    ( 0.0000,  0.0000,  0.0000)
  35 Li     1.753033    5.061734    7.378027    ( 0.0000,  0.0000,  0.0000)
  36 Li     1.752507    1.012970    9.341492    ( 0.0000,  0.0000,  0.0000)
  37 Li     0.000269    4.049841    9.354820    ( 0.0000,  0.0000,  0.0000)
  38 Li     5.259738    1.011805    9.354807    ( 0.0000,  0.0000,  0.0000)
  39 Li     3.504765    4.050291    9.325580    ( 0.0000,  0.0000,  0.0000)
  40 Li     3.505463    0.000834   11.361569    ( 0.0000,  0.0000,  0.0000)
  41 Li     1.750468    3.037469   11.268018    ( 0.0000,  0.0000,  0.0000)
  42 Li     7.011743    0.002157   11.266982    ( 0.0000,  0.0000,  0.0000)
  43 Li     5.259730    3.037207   11.310925    ( 0.0000,  0.0000,  0.0000)
  44 Li    -0.001861    2.025902   11.361552    ( 0.0000,  0.0000,  0.0000)
  45 Li    -1.753030    5.062030   11.268404    ( 0.0000,  0.0000,  0.0000)
  46 Li     3.506587    2.024057   11.269321    ( 0.0000,  0.0000,  0.0000)
  47 Li     1.750786    5.063003   11.307850    ( 0.0000,  0.0000,  0.0000)
  48 N      1.753084    1.012487    3.439048    ( 0.0000,  0.0000,  0.0000)
  49 N     -0.000296    4.049430    3.439048    ( 0.0000,  0.0000,  0.0000)
  50 N      5.259794    1.012487    3.439048    ( 0.0000,  0.0000,  0.0000)
  51 N      3.506414    4.049430    3.439048    ( 0.0000,  0.0000,  0.0000)
  52 N      1.753031    1.012517    7.360963    ( 0.0000,  0.0000,  0.0000)
  53 N     -0.000349    4.049460    7.360963    ( 0.0000,  0.0000,  0.0000)
  54 N      5.259741    1.012517    7.360963    ( 0.0000,  0.0000,  0.0000)
  55 N      3.506361    4.049460    7.360963    ( 0.0000,  0.0000,  0.0000)
  56 N      1.751417    1.012654   11.280396    ( 0.0000,  0.0000,  0.0000)
  57 N     -0.000725    4.050296   11.304401    ( 0.0000,  0.0000,  0.0000)
  58 N      5.259052    1.012301   11.304601    ( 0.0000,  0.0000,  0.0000)
  59 N      3.505149    4.050935   11.245045    ( 0.0000,  0.0000,  0.0000)
  60 N      1.774763    1.055263   15.220385    ( 0.0000,  0.0000,  0.0000)
  61 N      0.020649    4.050132   15.289384    ( 0.0000,  0.0000,  0.0000)
  62 N      5.245090    1.030335   15.291730    ( 0.0000,  0.0000,  0.0000)
  63 N      3.469741    3.985249   15.226003    ( 0.0000,  0.0000,  0.0000)
  64 Li     3.033296    3.157846   17.020388    ( 0.0000,  0.0000,  0.0000)

Unit cell:
           periodic     x           y           z      points  spacing
  1. axis:    yes    7.013420    0.000000    0.000000    40     0.1518
  2. axis:    yes   -3.506760    6.073886    0.000000    40     0.1518
  3. axis:    yes    0.000000    0.000000   29.936001   160     0.1871

  Lengths:   7.013420   7.013520  29.936001
  Angles:   90.000000  90.000000 120.000000

Effective grid spacing dv^(1/3) = 0.1708

                     log10-error:    total        iterations:
           time      wfs    density  energy       fermi  poisson
iter:   1  10:12:12  -1.69         -234.966806    3             
iter:   2  10:12:53  -2.81  -1.77  -235.154463    5             
iter:   3  10:13:34  -3.69  -1.69  -234.801513    4             
iter:   4  10:14:15  -3.00  -2.00  -234.929003    4             
iter:   5  10:14:56  -3.77  -1.74  -234.737968    4             
iter:   6  10:15:38  -3.46  -2.13  -234.704872    3             
iter:   7  10:16:19  -3.47  -2.27  -234.683821    3             
iter:   8  10:17:00  -4.46  -2.40  -234.665075    3             
iter:   9  10:17:42  -5.48  -2.71  -234.664008    3             
iter:  10  10:18:23  -4.52  -2.72  -234.661468    3             
iter:  11  10:19:05  -4.94  -2.88  -234.662845    2             
iter:  12  10:19:49  -5.34  -3.29  -234.661690    2             
iter:  13  10:20:30  -6.09  -3.14  -234.662992    2             
iter:  14  10:21:11  -5.89  -3.39  -234.662859    2             
iter:  15  10:21:52  -6.57  -3.53  -234.662717    2             
iter:  16  10:22:34  -6.36  -3.61  -234.662345    2             
iter:  17  10:23:16  -6.26  -3.67  -234.662343    2             
iter:  18  10:23:57  -6.93  -3.72  -234.662509    2             
iter:  19  10:24:39  -7.88  -3.87  -234.662526    2             
iter:  20  10:25:20  -6.50  -3.93  -234.662687    2             
iter:  21  10:26:02  -7.59  -4.07  -234.662471    2             

Converged after 21 iterations.

Dipole moment: (-2.477459, 1.437211, -11.376807) |e|*Ang

Energy contributions relative to reference atoms: (reference = -33644.147259)

Kinetic:       +256.356571
Potential:     -189.233075
External:        +0.000000
XC:            -300.461004
Entropy (-ST):   -0.075485
Local:           -1.287221
--------------------------
Free energy:   -234.700214
Extrapolated:  -234.662471

Fermi level: -0.27304

Showing only first 2 kpts
 Kpt  Band  Eigenvalues  Occupancy
  0    62     -0.52854    0.07952
  0    63     -0.07613    0.00153
  0    64     -0.02192    0.00052
  0    65      0.16257    0.00001

  1    62     -0.59305    0.15973
  1    63     -0.30622    0.10561
  1    64     -0.17549    0.01991
  1    65      0.34467    0.00000



Forces in eV/Ang:
  0 Li   -0.00007    0.00006   -0.04864
  1 Li   -0.00007    0.00005   -0.04876
  2 Li   -0.00008    0.00005   -0.04876
  3 Li   -0.00008    0.00004   -0.04863
  4 Li   -0.01813   -0.02649   -0.01640
  5 Li   -0.04138    0.02915    0.01201
  6 Li    0.04563   -0.01599    0.01849
  7 Li   -0.00056   -0.00490    0.28807
  8 Li    0.00834    0.10196    0.21200
  9 Li   -0.04886   -0.07849   -0.30432
 10 Li   -0.06994    0.03992    0.19411
 11 Li    0.06958   -0.06229    0.01981
 12 Li    0.07874    0.06097    0.21722
 13 Li    0.07595   -0.03998    0.20150
 14 Li   -0.04371   -0.09336   -0.31042
 15 Li   -0.07298    0.01392    0.02059
 16 Li    0.00011   -0.00016   -0.04205
 17 Li   -0.00010   -0.00007   -0.04228
 18 Li   -0.00009   -0.00004   -0.04230
 19 Li    0.00011   -0.00019   -0.04215
 20 Li   -0.00016    0.00015   -0.04205
 21 Li    0.00004    0.00002   -0.04232
 22 Li    0.00001    0.00001   -0.04231
 23 Li   -0.00019    0.00011   -0.04209
 24 Li   -0.00001    0.00006   -0.05050
 25 Li    0.00011    0.00001   -0.04754
 26 Li   -0.00000   -0.00008   -0.04756
 27 Li   -0.00012    0.00002   -0.05347
 28 Li    0.00247   -0.00157    0.00952
 29 Li   -0.00539    0.00019   -0.00051
 30 Li   -0.00268    0.00441    0.00024
 31 Li    0.00489   -0.00271    0.00675
 32 Li   -0.00320    0.00200    0.00955
 33 Li    0.00483   -0.00018    0.00179
 34 Li    0.00274   -0.00397    0.00090
 35 Li   -0.00558    0.00332    0.00375
 36 Li    0.00026   -0.00173   -0.00979
 37 Li   -0.00440   -0.00030   -0.01105
 38 Li   -0.00116    0.00347   -0.01049
 39 Li    0.00467   -0.00122   -0.02610
 40 Li    0.00602   -0.00344    0.01121
 41 Li   -0.01090   -0.00261    0.00429
 42 Li   -0.00615    0.01240   -0.00855
 43 Li    0.01466   -0.00946    0.01043
 44 Li   -0.00601    0.00381    0.01017
 45 Li    0.01400    0.00258   -0.00551
 46 Li    0.00167   -0.01162    0.00610
 47 Li   -0.01419    0.00698    0.00281
 48 N    -0.00011    0.00029    0.08076
 49 N    -0.00029    0.00014    0.09183
 50 N    -0.00020    0.00016    0.09207
 51 N    -0.00027   -0.00008    0.08223
 52 N    -0.00001    0.00063    0.04187
 53 N     0.00089    0.00003    0.08079
 54 N    -0.00007   -0.00056    0.08115
 55 N    -0.00127    0.00008   -0.01235
 56 N    -0.00150   -0.00465    0.02652
 57 N    -0.00656   -0.00012    0.03905
 58 N     0.00178    0.00087    0.04134
 59 N     0.00606    0.00442    0.08598
 60 N    -0.11606   -0.20544   -0.06020
 61 N    -0.22906    0.07345   -0.06003
 62 N     0.16840   -0.13652   -0.05348
 63 N     0.07684    0.12606   -0.02487
 64 Li    0.12024    0.22025   -0.47277

System changes: positions 

Initializing position-dependent things.

Density initialized from wave functions
                                         
                                         
                                         
                                         
                                         
                     Li                  
           Li      Li                    
             Li       N   Li             
                 Li  Li                  
              LiN   Li LiN  Li           
                                         
           Li N Li Li    Li              
                  Li   N  Li             
             Li      Li                  
              LiN   Li LiN  Li           
                                         
           Li N Li Li  N Li              
                  Li      Li             
             Li N    Li  N               
              Li    Li Li   Li           
           Li      Li                    
              N Li     N Li              
             Li   Li Li   Li             
                N        N               
              Li    Li Li   Li           
                                         
                Li       Li              
                                         
                                         
                                         
                                         

Positions:
   0 Li     1.753189    1.012426    1.530029    ( 0.0000,  0.0000,  0.0000)
   1 Li    -0.000191    4.049369    1.530029    ( 0.0000,  0.0000,  0.0000)
   2 Li     5.259899    1.012426    1.530029    ( 0.0000,  0.0000,  0.0000)
   3 Li     3.506519    4.049369    1.530029    ( 0.0000,  0.0000,  0.0000)
   4 Li     1.747926    1.014194   13.262769    ( 0.0000,  0.0000,  0.0000)
   5 Li     0.003262    4.053739   13.318619    ( 0.0000,  0.0000,  0.0000)
   6 Li     5.263435    1.005818   13.318714    ( 0.0000,  0.0000,  0.0000)
   7 Li     3.499617    4.052468   13.217269    ( 0.0000,  0.0000,  0.0000)
   8 Li     3.467437    0.009521   15.833689    ( 0.0000,  0.0000,  0.0000)
   9 Li     1.675451    3.021896   15.012509    ( 0.0000,  0.0000,  0.0000)
  10 Li     7.014911    0.028973   15.147415    ( 0.0000,  0.0000,  0.0000)
  11 Li     5.267540    3.038004   15.375738    ( 0.0000,  0.0000,  0.0000)
  12 Li     0.022079    1.999746   15.836238    ( 0.0000,  0.0000,  0.0000)
  13 Li    -1.731298    5.079749   15.135549    ( 0.0000,  0.0000,  0.0000)
  14 Li     3.528321    1.948856   14.993786    ( 0.0000,  0.0000,  0.0000)
  15 Li     1.748482    5.069069   15.403013    ( 0.0000,  0.0000,  0.0000)
  16 Li     3.506465    0.000182    3.465092    ( 0.0000,  0.0000,  0.0000)
  17 Li     1.753085    3.037125    3.465092    ( 0.0000,  0.0000,  0.0000)
  18 Li     7.013175    0.000182    3.465092    ( 0.0000,  0.0000,  0.0000)
  19 Li     5.259795    3.037125    3.465092    ( 0.0000,  0.0000,  0.0000)
  20 Li    -0.000262    2.024791    3.465092    ( 0.0000,  0.0000,  0.0000)
  21 Li    -1.753642    5.061734    3.465092    ( 0.0000,  0.0000,  0.0000)
  22 Li     3.506448    2.024791    3.465092    ( 0.0000,  0.0000,  0.0000)
  23 Li     1.753068    5.061734    3.465092    ( 0.0000,  0.0000,  0.0000)
  24 Li     1.753084    1.012487    5.431887    ( 0.0000,  0.0000,  0.0000)
  25 Li    -0.000296    4.049430    5.431887    ( 0.0000,  0.0000,  0.0000)
  26 Li     5.259794    1.012487    5.431887    ( 0.0000,  0.0000,  0.0000)
  27 Li     3.506414    4.049430    5.431887    ( 0.0000,  0.0000,  0.0000)
  28 Li     3.506429    0.000182    7.378027    ( 0.0000,  0.0000,  0.0000)
  29 Li     1.753049    3.037125    7.378027    ( 0.0000,  0.0000,  0.0000)
  30 Li     7.013139    0.000182    7.378027    ( 0.0000,  0.0000,  0.0000)
  31 Li     5.259759    3.037125    7.378027    ( 0.0000,  0.0000,  0.0000)
  32 Li    -0.000297    2.024791    7.378027    ( 0.0000,  0.0000,  0.0000)
  33 Li    -1.753677    5.061734    7.378027    ( 0.0000,  0.0000,  0.0000)
  34 Li     3.506413    2.024791    7.378027    ( 0.0000,  0.0000,  0.0000)
  35 Li     1.753033    5.061734    7.378027    ( 0.0000,  0.0000,  0.0000)
  36 Li     1.752509    1.012914    9.341311    ( 0.0000,  0.0000,  0.0000)
  37 Li     0.000141    4.049839    9.354792    ( 0.0000,  0.0000,  0.0000)
  38 Li     5.259714    1.011896    9.354787    ( 0.0000,  0.0000,  0.0000)
  39 Li     3.504902    4.050267    9.325130    ( 0.0000,  0.0000,  0.0000)
  40 Li     3.505530    0.000847   11.361502    ( 0.0000,  0.0000,  0.0000)
  41 Li     1.750382    3.037463   11.268216    ( 0.0000,  0.0000,  0.0000)
  42 Li     7.011645    0.002263   11.266833    ( 0.0000,  0.0000,  0.0000)
  43 Li     5.259794    3.037108   11.311555    ( 0.0000,  0.0000,  0.0000)
  44 Li    -0.001853    2.025961   11.361467    ( 0.0000,  0.0000,  0.0000)
  45 Li    -1.752891    5.062027   11.268347    ( 0.0000,  0.0000,  0.0000)
  46 Li     3.506592    2.023971   11.269582    ( 0.0000,  0.0000,  0.0000)
  47 Li     1.750677    5.062993   11.308253    ( 0.0000,  0.0000,  0.0000)
  48 N      1.753084    1.012487    3.439048    ( 0.0000,  0.0000,  0.0000)
  49 N     -0.000296    4.049430    3.439048    ( 0.0000,  0.0000,  0.0000)
  50 N      5.259794    1.012487    3.439048    ( 0.0000,  0.0000,  0.0000)
  51 N      3.506414    4.049430    3.439048    ( 0.0000,  0.0000,  0.0000)
  52 N      1.753031    1.012517    7.360963    ( 0.0000,  0.0000,  0.0000)
  53 N     -0.000349    4.049460    7.360963    ( 0.0000,  0.0000,  0.0000)
  54 N      5.259741    1.012517    7.360963    ( 0.0000,  0.0000,  0.0000)
  55 N      3.506361    4.049460    7.360963    ( 0.0000,  0.0000,  0.0000)
  56 N      1.751358    1.012549   11.280502    ( 0.0000,  0.0000,  0.0000)
  57 N     -0.000792    4.050301   11.304703    ( 0.0000,  0.0000,  0.0000)
  58 N      5.259080    1.012283   11.304952    ( 0.0000,  0.0000,  0.0000)
  59 N      3.505247    4.051051   11.246084    ( 0.0000,  0.0000,  0.0000)
  60 N      1.775170    1.055793   15.219380    ( 0.0000,  0.0000,  0.0000)
  61 N      0.019791    4.050830   15.288751    ( 0.0000,  0.0000,  0.0000)
  62 N      5.246092    1.029966   15.291381    ( 0.0000,  0.0000,  0.0000)
  63 N      3.467590    3.981249   15.234477    ( 0.0000,  0.0000,  0.0000)
  64 Li     3.032559    3.157127   17.007996    ( 0.0000,  0.0000,  0.0000)

Unit cell:
           periodic     x           y           z      points  spacing
  1. axis:    yes    7.013420    0.000000    0.000000    40     0.1518
  2. axis:    yes   -3.506760    6.073886    0.000000    40     0.1518
  3. axis:    yes    0.000000    0.000000   29.936001   160     0.1871

  Lengths:   7.013420   7.013520  29.936001
  Angles:   90.000000  90.000000 120.000000

Effective grid spacing dv^(1/3) = 0.1708

                     log10-error:    total        iterations:
           time      wfs    density  energy       fermi  poisson
iter:   1  10:28:59  -3.69         -234.679414    2             
iter:   2  10:29:40  -4.83  -2.99  -234.676154    3             
iter:   3  10:30:22  -5.57  -2.81  -234.677678    2             
iter:   4  10:31:03  -5.26  -3.21  -234.677555    2             
iter:   5  10:31:44  -6.44  -3.35  -234.677419    2             
iter:   6  10:32:26  -5.66  -3.42  -234.677107    2             
iter:   7  10:33:08  -6.14  -3.73  -234.677112    2             
iter:   8  10:33:50  -6.86  -3.79  -234.676953    2             
iter:   9  10:34:32  -7.32  -3.75  -234.677050    2             
iter:  10  10:35:13  -6.59  -3.87  -234.676990    2             
iter:  11  10:35:55  -7.63  -4.07  -234.677008    2             

Converged after 11 iterations.

Dipole moment: (-2.431268, 1.400561, -11.379735) |e|*Ang

Energy contributions relative to reference atoms: (reference = -33644.147259)

Kinetic:       +256.434869
Potential:     -189.300041
External:        +0.000000
XC:            -300.485753
Entropy (-ST):   -0.075458
Local:           -1.288352
--------------------------
Free energy:   -234.714737
Extrapolated:  -234.677008

Fermi level: -0.27526

Showing only first 2 kpts
 Kpt  Band  Eigenvalues  Occupancy
  0    62     -0.53087    0.07952
  0    63     -0.08211    0.00165
  0    64     -0.02074    0.00049
  0    65      0.15911    0.00001

  1    62     -0.59613    0.15974
  1    63     -0.30834    0.10554
  1    64     -0.17862    0.02023
  1    65      0.34187    0.00000



Forces in eV/Ang:
  0 Li   -0.00007    0.00006   -0.04869
  1 Li   -0.00007    0.00005   -0.04880
  2 Li   -0.00007    0.00005   -0.04880
  3 Li   -0.00008    0.00004   -0.04870
  4 Li   -0.02548   -0.03889   -0.01966
  5 Li   -0.04899    0.03398    0.00043
  6 Li    0.05418   -0.02110    0.00705
  7 Li    0.00375    0.00386    0.26953
  8 Li    0.03575    0.08606    0.20817
  9 Li   -0.06154   -0.07021   -0.28570
 10 Li   -0.07645    0.04300    0.18878
 11 Li    0.10081   -0.08201    0.03027
 12 Li    0.05113    0.07648    0.21274
 13 Li    0.08179   -0.04408    0.19618
 14 Li   -0.02988   -0.09982   -0.29011
 15 Li   -0.10493    0.03055    0.03075
 16 Li    0.00011   -0.00016   -0.04203
 17 Li   -0.00010   -0.00007   -0.04226
 18 Li   -0.00009   -0.00004   -0.04228
 19 Li    0.00012   -0.00019   -0.04213
 20 Li   -0.00016    0.00014   -0.04203
 21 Li    0.00004    0.00002   -0.04229
 22 Li    0.00001    0.00000   -0.04229
 23 Li   -0.00019    0.00012   -0.04208
 24 Li    0.00001    0.00009   -0.05096
 25 Li    0.00012   -0.00000   -0.04795
 26 Li   -0.00002   -0.00006   -0.04797
 27 Li   -0.00013   -0.00002   -0.05398
 28 Li    0.00256   -0.00152    0.00977
 29 Li   -0.00554    0.00011   -0.00025
 30 Li   -0.00278    0.00463    0.00022
 31 Li    0.00505   -0.00291    0.00669
 32 Li   -0.00317    0.00210    0.00981
 33 Li    0.00507   -0.00012    0.00164
 34 Li    0.00269   -0.00414    0.00101
 35 Li   -0.00582    0.00334    0.00396
 36 Li    0.00043   -0.00133   -0.00792
 37 Li   -0.00400   -0.00045   -0.00949
 38 Li   -0.00134    0.00343   -0.00883
 39 Li    0.00430   -0.00145   -0.01651
 40 Li    0.00596   -0.00382    0.01175
 41 Li   -0.00962   -0.00167    0.00476
 42 Li   -0.00569    0.01032   -0.00562
 43 Li    0.01336   -0.00817    0.01234
 44 Li   -0.00639    0.00352    0.01060
 45 Li    0.01194    0.00188   -0.00291
 46 Li    0.00194   -0.01002    0.00629
 47 Li   -0.01244    0.00659    0.00537
 48 N    -0.00011    0.00031    0.08037
 49 N    -0.00026    0.00014    0.09144
 50 N    -0.00020    0.00015    0.09173
 51 N    -0.00026   -0.00002    0.08363
 52 N    -0.00024    0.00019    0.04107
 53 N     0.00058    0.00014    0.08121
 54 N     0.00013   -0.00066    0.08163
 55 N    -0.00098    0.00043   -0.01218
 56 N     0.00172    0.00071    0.02073
 57 N    -0.00377   -0.00139    0.03969
 58 N    -0.00087    0.00263    0.04195
 59 N     0.00266   -0.00132    0.08878
 60 N    -0.12036   -0.21129   -0.06965
 61 N    -0.22534    0.06642   -0.04788
 62 N     0.16085   -0.13668   -0.04411
 63 N     0.09792    0.16778   -0.12999
 64 Li    0.10814    0.19753   -0.41721

System changes: positions 

Initializing position-dependent things.

Density initialized from wave functions
                                         
                                         
                                         
                                         
                                         
                     Li                  
           Li N    Li                    
             Li       N   Li             
                 Li Lii  N               
              LiN      Li   Li           
                                         
           Li N Li Li  N Li              
                  Li      Li             
             Li N    Li  N               
              Li    Li Li   Li           
                                         
           Li N Li Li  N Li              
                  Li      Li             
             Li N    Li  N               
              Li    Li Li   Li           
           Li      Li                    
              N Li     N Li              
             Li   Li Li   Li             
                N        N               
              Li    Li Li   Li           
                                         
                Li       Li              
                                         
                                         
                                         
                                         

Positions:
   0 Li     1.753189    1.012426    1.530029    ( 0.0000,  0.0000,  0.0000)
   1 Li    -0.000191    4.049369    1.530029    ( 0.0000,  0.0000,  0.0000)
   2 Li     5.259899    1.012426    1.530029    ( 0.0000,  0.0000,  0.0000)
   3 Li     3.506519    4.049369    1.530029    ( 0.0000,  0.0000,  0.0000)
   4 Li     1.743750    1.007730   13.257818    ( 0.0000,  0.0000,  0.0000)
   5 Li    -0.006091    4.059868   13.326353    ( 0.0000,  0.0000,  0.0000)
   6 Li     5.273040    1.002919   13.327595    ( 0.0000,  0.0000,  0.0000)
   7 Li     3.500904    4.052667   13.266455    ( 0.0000,  0.0000,  0.0000)
   8 Li     3.445762    0.042364   15.863649    ( 0.0000,  0.0000,  0.0000)
   9 Li     1.666300    3.009969   14.929838    ( 0.0000,  0.0000,  0.0000)
  10 Li     7.013795    0.025984   15.189103    ( 0.0000,  0.0000,  0.0000)
  11 Li     5.247142    3.037551   15.390044    ( 0.0000,  0.0000,  0.0000)
  12 Li     0.061576    1.997300   15.868054    ( 0.0000,  0.0000,  0.0000)
  13 Li    -1.733100    5.077052   15.179097    ( 0.0000,  0.0000,  0.0000)
  14 Li     3.522433    1.933536   14.909258    ( 0.0000,  0.0000,  0.0000)
  15 Li     1.759208    5.050089   15.417243    ( 0.0000,  0.0000,  0.0000)
  16 Li     3.506465    0.000182    3.465092    ( 0.0000,  0.0000,  0.0000)
  17 Li     1.753085    3.037125    3.465092    ( 0.0000,  0.0000,  0.0000)
  18 Li     7.013175    0.000182    3.465092    ( 0.0000,  0.0000,  0.0000)
  19 Li     5.259795    3.037125    3.465092    ( 0.0000,  0.0000,  0.0000)
  20 Li    -0.000262    2.024791    3.465092    ( 0.0000,  0.0000,  0.0000)
  21 Li    -1.753642    5.061734    3.465092    ( 0.0000,  0.0000,  0.0000)
  22 Li     3.506448    2.024791    3.465092    ( 0.0000,  0.0000,  0.0000)
  23 Li     1.753068    5.061734    3.465092    ( 0.0000,  0.0000,  0.0000)
  24 Li     1.753084    1.012487    5.431887    ( 0.0000,  0.0000,  0.0000)
  25 Li    -0.000296    4.049430    5.431887    ( 0.0000,  0.0000,  0.0000)
  26 Li     5.259794    1.012487    5.431887    ( 0.0000,  0.0000,  0.0000)
  27 Li     3.506414    4.049430    5.431887    ( 0.0000,  0.0000,  0.0000)
  28 Li     3.506429    0.000182    7.378027    ( 0.0000,  0.0000,  0.0000)
  29 Li     1.753049    3.037125    7.378027    ( 0.0000,  0.0000,  0.0000)
  30 Li     7.013139    0.000182    7.378027    ( 0.0000,  0.0000,  0.0000)
  31 Li     5.259759    3.037125    7.378027    ( 0.0000,  0.0000,  0.0000)
  32 Li    -0.000297    2.024791    7.378027    ( 0.0000,  0.0000,  0.0000)
  33 Li    -1.753677    5.061734    7.378027    ( 0.0000,  0.0000,  0.0000)
  34 Li     3.506413    2.024791    7.378027    ( 0.0000,  0.0000,  0.0000)
  35 Li     1.753033    5.061734    7.378027    ( 0.0000,  0.0000,  0.0000)
  36 Li     1.752561    1.012447    9.339453    ( 0.0000,  0.0000,  0.0000)
  37 Li    -0.001002    4.049789    9.354094    ( 0.0000,  0.0000,  0.0000)
  38 Li     5.259447    1.012761    9.354184    ( 0.0000,  0.0000,  0.0000)
  39 Li     3.506128    4.049987    9.321612    ( 0.0000,  0.0000,  0.0000)
  40 Li     3.506392    0.000677   11.361267    ( 0.0000,  0.0000,  0.0000)
  41 Li     1.749263    3.037401   11.269957    ( 0.0000,  0.0000,  0.0000)
  42 Li     7.010613    0.003516   11.265587    ( 0.0000,  0.0000,  0.0000)
  43 Li     5.260996    3.035983   11.317433    ( 0.0000,  0.0000,  0.0000)
  44 Li    -0.002212    2.026585   11.361028    ( 0.0000,  0.0000,  0.0000)
  45 Li    -1.751290    5.062064   11.267896    ( 0.0000,  0.0000,  0.0000)
  46 Li     3.506776    2.022853   11.271837    ( 0.0000,  0.0000,  0.0000)
  47 Li     1.749252    5.063302   11.312136    ( 0.0000,  0.0000,  0.0000)
  48 N      1.753084    1.012487    3.439048    ( 0.0000,  0.0000,  0.0000)
  49 N     -0.000296    4.049430    3.439048    ( 0.0000,  0.0000,  0.0000)
  50 N      5.259794    1.012487    3.439048    ( 0.0000,  0.0000,  0.0000)
  51 N      3.506414    4.049430    3.439048    ( 0.0000,  0.0000,  0.0000)
  52 N      1.753031    1.012517    7.360963    ( 0.0000,  0.0000,  0.0000)
  53 N     -0.000349    4.049460    7.360963    ( 0.0000,  0.0000,  0.0000)
  54 N      5.259741    1.012517    7.360963    ( 0.0000,  0.0000,  0.0000)
  55 N      3.506361    4.049460    7.360963    ( 0.0000,  0.0000,  0.0000)
  56 N      1.751196    1.012093   11.281963    ( 0.0000,  0.0000,  0.0000)
  57 N     -0.001368    4.050193   11.309397    ( 0.0000,  0.0000,  0.0000)
  58 N      5.259111    1.012406   11.310132    ( 0.0000,  0.0000,  0.0000)
  59 N      3.505957    4.051528   11.259607    ( 0.0000,  0.0000,  0.0000)
  60 N      1.770803    1.046847   15.207506    ( 0.0000,  0.0000,  0.0000)
  61 N      0.000162    4.059376   15.281928    ( 0.0000,  0.0000,  0.0000)
  62 N      5.262549    1.018937   15.286651    ( 0.0000,  0.0000,  0.0000)
  63 N      3.459370    3.965297   15.281298    ( 0.0000,  0.0000,  0.0000)
  64 Li     3.025584    3.149943   16.898479    ( 0.0000,  0.0000,  0.0000)

Unit cell:
           periodic     x           y           z      points  spacing
  1. axis:    yes    7.013420    0.000000    0.000000    40     0.1518
  2. axis:    yes   -3.506760    6.073886    0.000000    40     0.1518
  3. axis:    yes    0.000000    0.000000   29.936001   160     0.1871

  Lengths:   7.013420   7.013520  29.936001
  Angles:   90.000000  90.000000 120.000000

Effective grid spacing dv^(1/3) = 0.1708

                     log10-error:    total        iterations:
           time      wfs    density  energy       fermi  poisson
iter:   1  10:37:52  -1.84         -234.888776    3             
iter:   2  10:38:33  -2.69  -1.83  -235.193661    4             
iter:   3  10:39:15  -3.67  -1.74  -234.824422    3             
iter:   4  10:39:56  -4.10  -2.05  -234.771875    3             
iter:   5  10:40:39  -3.87  -2.25  -234.773069    3             
iter:   6  10:41:20  -3.97  -2.26  -234.748694    3             
iter:   7  10:42:02  -4.07  -2.56  -234.741887    2             
iter:   8  10:42:43  -5.19  -2.92  -234.740048    2             
iter:   9  10:43:24  -4.72  -2.90  -234.743301    3             
iter:  10  10:44:06  -5.45  -2.88  -234.739703    2             
iter:  11  10:44:47  -5.75  -3.23  -234.740236    2             
iter:  12  10:45:28  -5.48  -3.41  -234.740121    2             
iter:  13  10:46:09  -6.30  -3.43  -234.740548    2             
iter:  14  10:46:50  -6.15  -3.47  -234.740427    2             
iter:  15  10:47:32  -6.79  -3.61  -234.740277    2             
iter:  16  10:48:13  -7.05  -3.85  -234.740100    2             
iter:  17  10:48:55  -7.51  -3.96  -234.740248    1             
iter:  18  10:49:36  -8.40  -4.03  -234.740186    2             

Converged after 18 iterations.

Dipole moment: (-1.992812, 1.021390, -11.400542) |e|*Ang

Energy contributions relative to reference atoms: (reference = -33644.147259)

Kinetic:       +257.196730
Potential:     -189.918370
External:        +0.000000
XC:            -300.693383
Entropy (-ST):   -0.074732
Local:           -1.287798
--------------------------
Free energy:   -234.777553
Extrapolated:  -234.740186

Fermi level: -0.29155

Showing only first 2 kpts
 Kpt  Band  Eigenvalues  Occupancy
  0    62     -0.55889    0.07962
  0    63     -0.12490    0.00276
  0    64     -0.01883    0.00034
  0    65      0.13205    0.00002

  1    62     -0.62936    0.15981
  1    63     -0.32963    0.10907
  1    64     -0.20005    0.02212
  1    65      0.32113    0.00000



Forces in eV/Ang:
  0 Li   -0.00007    0.00006   -0.05153
  1 Li   -0.00007    0.00005   -0.05165
  2 Li   -0.00007    0.00005   -0.05166
  3 Li   -0.00008    0.00004   -0.05164
  4 Li   -0.09550   -0.15832   -0.05336
  5 Li   -0.11885    0.07850   -0.08141
  6 Li    0.13146   -0.06584   -0.07632
  7 Li    0.05741    0.10431    0.02427
  8 Li    0.19570   -0.00490    0.16193
  9 Li   -0.16456    0.00541   -0.10375
 10 Li   -0.06521    0.03004    0.10446
 11 Li    0.24173   -0.21888    0.06657
 12 Li   -0.10459    0.16478    0.16235
 13 Li    0.05880   -0.04339    0.11136
 14 Li    0.08956   -0.14190   -0.09456
 15 Li   -0.30196    0.08890    0.06682
 16 Li    0.00011   -0.00018   -0.04281
 17 Li   -0.00017   -0.00009   -0.04318
 18 Li   -0.00009    0.00002   -0.04311
 19 Li    0.00018   -0.00021   -0.04294
 20 Li   -0.00017    0.00014   -0.04282
 21 Li    0.00010    0.00005   -0.04309
 22 Li    0.00002   -0.00007   -0.04319
 23 Li   -0.00025    0.00016   -0.04295
 24 Li   -0.00010   -0.00016   -0.05461
 25 Li   -0.00009    0.00006   -0.05136
 26 Li    0.00009   -0.00007   -0.05138
 27 Li    0.00008    0.00018   -0.05816
 28 Li    0.00296   -0.00185    0.00880
 29 Li   -0.00687   -0.00005   -0.00021
 30 Li   -0.00327    0.00585   -0.00184
 31 Li    0.00646   -0.00362    0.00418
 32 Li   -0.00328    0.00213    0.00888
 33 Li    0.00627    0.00052   -0.00181
 34 Li    0.00271   -0.00549   -0.00038
 35 Li   -0.00695    0.00402    0.00419
 36 Li    0.00319    0.00430    0.01285
 37 Li    0.00072   -0.00243    0.01438
 38 Li   -0.00406    0.00393    0.01576
 39 Li   -0.00010   -0.00551    0.07886
 40 Li    0.00504    0.00168    0.02124
 41 Li    0.01213    0.00740    0.01878
 42 Li   -0.00136   -0.01575    0.02219
 43 Li   -0.01302    0.00399    0.03565
 44 Li   -0.00161    0.00486    0.01881
 45 Li   -0.01327   -0.00905    0.02229
 46 Li    0.00068    0.01416    0.01825
 47 Li    0.00981   -0.00860    0.03390
 48 N    -0.00002    0.00050    0.08515
 49 N    -0.00004    0.00009    0.09613
 50 N    -0.00033    0.00026    0.09683
 51 N    -0.00017    0.00022    0.09652
 52 N    -0.00091   -0.00149    0.03997
 53 N    -0.00102    0.00035    0.08495
 54 N     0.00051   -0.00050    0.08593
 55 N     0.00047    0.00113   -0.01260
 56 N     0.00704    0.01277   -0.01090
 57 N     0.00622   -0.00162    0.00939
 58 N    -0.00472    0.00462    0.01217
 59 N    -0.00790   -0.01311    0.08162
 60 N    -0.04887   -0.07130   -0.06261
 61 N    -0.01529   -0.02238    0.01596
 62 N    -0.00867   -0.02455    0.00602
 63 N     0.18863    0.35700   -0.78444
 64 Li   -0.03699   -0.07590    0.18901

System changes: positions 

Initializing position-dependent things.

Density initialized from wave functions
                                         
                                         
                                         
                                         
                                         
                     Li                  
           Li N    Li                    
             Li       N   Li             
                 Li Lii  N               
              LiN      Li   Li           
                                         
           Li N Li Li  N Li              
                  Li      Li             
             Li N    Li  N               
              Li    Li Li   Li           
                                         
           Li N Li Li  N Li              
                  Li      Li             
             Li N    Li  N               
              Li    Li Li   Li           
           Li      Li                    
              N Li     N Li              
             Li   Li Li   Li             
                N        N               
              Li    Li Li   Li           
                                         
                Li       Li              
                                         
                                         
                                         
                                         

Positions:
   0 Li     1.753189    1.012426    1.530029    ( 0.0000,  0.0000,  0.0000)
   1 Li    -0.000191    4.049369    1.530029    ( 0.0000,  0.0000,  0.0000)
   2 Li     5.259899    1.012426    1.530029    ( 0.0000,  0.0000,  0.0000)
   3 Li     3.506519    4.049369    1.530029    ( 0.0000,  0.0000,  0.0000)
   4 Li     1.741232    1.003681   13.255653    ( 0.0000,  0.0000,  0.0000)
   5 Li    -0.010265    4.062653   13.325998    ( 0.0000,  0.0000,  0.0000)
   6 Li     5.277562    1.001053   13.327634    ( 0.0000,  0.0000,  0.0000)
   7 Li     3.501948    4.054226   13.280648    ( 0.0000,  0.0000,  0.0000)
   8 Li     3.447789    0.048234   15.872900    ( 0.0000,  0.0000,  0.0000)
   9 Li     1.661428    3.007089   14.910899    ( 0.0000,  0.0000,  0.0000)
  10 Li     7.010051    0.027348   15.200592    ( 0.0000,  0.0000,  0.0000)
  11 Li     5.251624    3.031989   15.396150    ( 0.0000,  0.0000,  0.0000)
  12 Li     0.065489    2.002008   15.877642    ( 0.0000,  0.0000,  0.0000)
  13 Li    -1.729812    5.074467   15.191133    ( 0.0000,  0.0000,  0.0000)
  14 Li     3.522419    1.927346   14.890170    ( 0.0000,  0.0000,  0.0000)
  15 Li     1.752888    5.050426   15.423236    ( 0.0000,  0.0000,  0.0000)
  16 Li     3.506465    0.000182    3.465092    ( 0.0000,  0.0000,  0.0000)
  17 Li     1.753085    3.037125    3.465092    ( 0.0000,  0.0000,  0.0000)
  18 Li     7.013175    0.000182    3.465092    ( 0.0000,  0.0000,  0.0000)
  19 Li     5.259795    3.037125    3.465092    ( 0.0000,  0.0000,  0.0000)
  20 Li    -0.000262    2.024791    3.465092    ( 0.0000,  0.0000,  0.0000)
  21 Li    -1.753642    5.061734    3.465092    ( 0.0000,  0.0000,  0.0000)
  22 Li     3.506448    2.024791    3.465092    ( 0.0000,  0.0000,  0.0000)
  23 Li     1.753068    5.061734    3.465092    ( 0.0000,  0.0000,  0.0000)
  24 Li     1.753084    1.012487    5.431887    ( 0.0000,  0.0000,  0.0000)
  25 Li    -0.000296    4.049430    5.431887    ( 0.0000,  0.0000,  0.0000)
  26 Li     5.259794    1.012487    5.431887    ( 0.0000,  0.0000,  0.0000)
  27 Li     3.506414    4.049430    5.431887    ( 0.0000,  0.0000,  0.0000)
  28 Li     3.506429    0.000182    7.378027    ( 0.0000,  0.0000,  0.0000)
  29 Li     1.753049    3.037125    7.378027    ( 0.0000,  0.0000,  0.0000)
  30 Li     7.013139    0.000182    7.378027    ( 0.0000,  0.0000,  0.0000)
  31 Li     5.259759    3.037125    7.378027    ( 0.0000,  0.0000,  0.0000)
  32 Li    -0.000297    2.024791    7.378027    ( 0.0000,  0.0000,  0.0000)
  33 Li    -1.753677    5.061734    7.378027    ( 0.0000,  0.0000,  0.0000)
  34 Li     3.506413    2.024791    7.378027    ( 0.0000,  0.0000,  0.0000)
  35 Li     1.753033    5.061734    7.378027    ( 0.0000,  0.0000,  0.0000)
  36 Li     1.752628    1.012423    9.339061    ( 0.0000,  0.0000,  0.0000)
  37 Li    -0.001229    4.049734    9.353885    ( 0.0000,  0.0000,  0.0000)
  38 Li     5.259320    1.013012    9.354024    ( 0.0000,  0.0000,  0.0000)
  39 Li     3.506384    4.049832    9.321869    ( 0.0000,  0.0000,  0.0000)
  40 Li     3.506759    0.000567   11.361629    ( 0.0000,  0.0000,  0.0000)
  41 Li     1.749008    3.037444   11.270543    ( 0.0000,  0.0000,  0.0000)
  42 Li     7.010295    0.003768   11.265563    ( 0.0000,  0.0000,  0.0000)
  43 Li     5.261379    3.035642   11.319170    ( 0.0000,  0.0000,  0.0000)
  44 Li    -0.002480    2.026848   11.361298    ( 0.0000,  0.0000,  0.0000)
  45 Li    -1.750908    5.061998   11.268032    ( 0.0000,  0.0000,  0.0000)
  46 Li     3.506870    2.022610   11.272508    ( 0.0000,  0.0000,  0.0000)
  47 Li     1.748824    5.063425   11.313446    ( 0.0000,  0.0000,  0.0000)
  48 N      1.753084    1.012487    3.439048    ( 0.0000,  0.0000,  0.0000)
  49 N     -0.000296    4.049430    3.439048    ( 0.0000,  0.0000,  0.0000)
  50 N      5.259794    1.012487    3.439048    ( 0.0000,  0.0000,  0.0000)
  51 N      3.506414    4.049430    3.439048    ( 0.0000,  0.0000,  0.0000)
  52 N      1.753031    1.012517    7.360963    ( 0.0000,  0.0000,  0.0000)
  53 N     -0.000349    4.049460    7.360963    ( 0.0000,  0.0000,  0.0000)
  54 N      5.259741    1.012517    7.360963    ( 0.0000,  0.0000,  0.0000)
  55 N      3.506361    4.049460    7.360963    ( 0.0000,  0.0000,  0.0000)
  56 N      1.751226    1.012066   11.282637    ( 0.0000,  0.0000,  0.0000)
  57 N     -0.001558    4.050167   11.311303    ( 0.0000,  0.0000,  0.0000)
  58 N      5.259123    1.012513   11.312200    ( 0.0000,  0.0000,  0.0000)
  59 N      3.506119    4.051544   11.265303    ( 0.0000,  0.0000,  0.0000)
  60 N      1.765790    1.038104   15.203473    ( 0.0000,  0.0000,  0.0000)
  61 N     -0.009470    4.062121   15.279532    ( 0.0000,  0.0000,  0.0000)
  62 N      5.269403    1.012941   15.284469    ( 0.0000,  0.0000,  0.0000)
  63 N      3.464627    3.974571   15.270873    ( 0.0000,  0.0000,  0.0000)
  64 Li     3.023215    3.146699   16.878502    ( 0.0000,  0.0000,  0.0000)

Unit cell:
           periodic     x           y           z      points  spacing
  1. axis:    yes    7.013420    0.000000    0.000000    40     0.1518
  2. axis:    yes   -3.506760    6.073886    0.000000    40     0.1518
  3. axis:    yes    0.000000    0.000000   29.936001   160     0.1871

  Lengths:   7.013420   7.013520  29.936001
  Angles:   90.000000  90.000000 120.000000

Effective grid spacing dv^(1/3) = 0.1708

                     log10-error:    total        iterations:
           time      wfs    density  energy       fermi  poisson
iter:   1  10:52:29  -2.94         -234.776952    3             
iter:   2  10:53:10  -3.78  -2.26  -234.855956    4             
iter:   3  10:53:51  -4.62  -2.15  -234.780270    3             
iter:   4  10:54:32  -4.24  -2.48  -234.810228    4             
iter:   5  10:55:13  -4.44  -2.06  -234.766531    3             
iter:   6  10:55:56  -5.00  -3.05  -234.769929    2             
iter:   7  10:56:38  -5.39  -2.81  -234.764111    3             
iter:   8  10:57:19  -5.85  -2.94  -234.765541    2             
iter:   9  10:58:00  -6.68  -3.50  -234.765721    2             
iter:  10  10:58:41  -6.06  -3.47  -234.765906    2             
iter:  11  10:59:23  -6.73  -3.53  -234.765316    2             
iter:  12  11:00:04  -7.64  -3.92  -234.765356    2             
iter:  13  11:00:46  -7.34  -4.01  -234.765303    2             

Converged after 13 iterations.

Dipole moment: (-1.871402, 0.904422, -11.401039) |e|*Ang

Energy contributions relative to reference atoms: (reference = -33644.147259)

Kinetic:       +257.149836
Potential:     -189.909246
External:        +0.000000
XC:            -300.679201
Entropy (-ST):   -0.074723
Local:           -1.289331
--------------------------
Free energy:   -234.802665
Extrapolated:  -234.765303

Fermi level: -0.29189

Showing only first 2 kpts
 Kpt  Band  Eigenvalues  Occupancy
  0    62     -0.56698    0.07968
  0    63     -0.12243    0.00261
  0    64     -0.01891    0.00034
  0    65      0.13054    0.00002

  1    62     -0.63774    0.15984
  1    63     -0.32959    0.10881
  1    64     -0.19893    0.02157
  1    65      0.31984    0.00000



Forces in eV/Ang:
  0 Li   -0.00007    0.00005   -0.05043
  1 Li   -0.00008    0.00005   -0.05055
  2 Li   -0.00007    0.00005   -0.05056
  3 Li   -0.00008    0.00005   -0.05053
  4 Li   -0.10981   -0.18313   -0.05365
  5 Li   -0.13166    0.08735   -0.08352
  6 Li    0.14597   -0.07352   -0.08060
  7 Li    0.07404    0.13332   -0.08885
  8 Li    0.17457   -0.00735    0.14601
  9 Li   -0.16037    0.02264   -0.07497
 10 Li   -0.02190   -0.00250    0.07253
 11 Li    0.18977   -0.20667    0.03598
 12 Li   -0.09350    0.14341    0.14658
 13 Li    0.00425   -0.02274    0.07886
 14 Li    0.10257   -0.12538   -0.06401
 15 Li   -0.27373    0.05698    0.03742
 16 Li    0.00010   -0.00017   -0.04263
 17 Li   -0.00017   -0.00011   -0.04298
 18 Li   -0.00008    0.00003   -0.04297
 19 Li    0.00018   -0.00022   -0.04276
 20 Li   -0.00017    0.00015   -0.04264
 21 Li    0.00011    0.00006   -0.04294
 22 Li    0.00002   -0.00007   -0.04298
 23 Li   -0.00026    0.00016   -0.04279
 24 Li   -0.00004   -0.00007   -0.05518
 25 Li   -0.00005    0.00003   -0.05189
 26 Li    0.00003   -0.00002   -0.05191
 27 Li    0.00004    0.00008   -0.05861
 28 Li    0.00296   -0.00182    0.00883
 29 Li   -0.00690   -0.00010   -0.00015
 30 Li   -0.00330    0.00594   -0.00134
 31 Li    0.00651   -0.00369    0.00393
 32 Li   -0.00317    0.00211    0.00891
 33 Li    0.00633    0.00065   -0.00167
 34 Li    0.00257   -0.00556   -0.00067
 35 Li   -0.00699    0.00399    0.00463
 36 Li    0.00299    0.00421    0.01932
 37 Li    0.00111   -0.00236    0.02336
 38 Li   -0.00382    0.00345    0.02484
 39 Li   -0.00043   -0.00502    0.10109
 40 Li    0.00251    0.00416    0.02118
 41 Li    0.01866    0.00965    0.02752
 42 Li    0.00143   -0.02405    0.02749
 43 Li   -0.02269    0.00940    0.04344
 44 Li    0.00216    0.00357    0.01845
 45 Li   -0.02212   -0.01126    0.02714
 46 Li   -0.00031    0.02137    0.02681
 47 Li    0.01859   -0.01374    0.04237
 48 N    -0.00012    0.00034    0.08334
 49 N    -0.00007    0.00010    0.09416
 50 N    -0.00030    0.00021    0.09498
 51 N    -0.00017    0.00029    0.09395
 52 N    -0.00037   -0.00073    0.03492
 53 N    -0.00080    0.00002    0.08164
 54 N    -0.00008    0.00000    0.08283
 55 N     0.00026    0.00017   -0.01386
 56 N     0.00422    0.00936   -0.03309
 57 N     0.00613    0.00056   -0.01139
 58 N    -0.00212    0.00207   -0.00850
 59 N    -0.00841   -0.01102    0.05297
 60 N     0.02927    0.06604   -0.02513
 61 N     0.11601   -0.06764    0.04866
 62 N    -0.10714    0.05081    0.03984
 63 N     0.10691    0.21226   -0.64849
 64 Li   -0.04377   -0.08905    0.21062

System changes: positions 

Initializing position-dependent things.

Density initialized from wave functions
                                         
                                         
                                         
                                         
                                         
                     Li                  
           Li N    Li                    
             Li        N  Li             
                 Li Lii  N               
              LiN      Li   Li           
                                         
           Li N Li Li  N Li              
                  Li      Li             
             Li N    Li  N               
              Li    Li Li   Li           
                                         
           Li N Li Li  N Li              
                  Li      Li             
             Li N    Li  N               
              Li    Li Li   Li           
           Li      Li                    
              N Li     N Li              
             Li   Li Li   Li             
                N        N               
              Li    Li Li   Li           
                                         
                Li       Li              
                                         
                                         
                                         
                                         

Positions:
   0 Li     1.753189    1.012426    1.530029    ( 0.0000,  0.0000,  0.0000)
   1 Li    -0.000191    4.049369    1.530029    ( 0.0000,  0.0000,  0.0000)
   2 Li     5.259899    1.012426    1.530029    ( 0.0000,  0.0000,  0.0000)
   3 Li     3.506519    4.049369    1.530029    ( 0.0000,  0.0000,  0.0000)
   4 Li     1.735977    0.995083   13.252025    ( 0.0000,  0.0000,  0.0000)
   5 Li    -0.017884    4.067737   13.323713    ( 0.0000,  0.0000,  0.0000)
   6 Li     5.285904    0.997314   13.325851    ( 0.0000,  0.0000,  0.0000)
   7 Li     3.504768    4.058955   13.294784    ( 0.0000,  0.0000,  0.0000)
   8 Li     3.454309    0.054506   15.886250    ( 0.0000,  0.0000,  0.0000)
   9 Li     1.652603    3.004337   14.888171    ( 0.0000,  0.0000,  0.0000)
  10 Li     7.005150    0.028910   15.215062    ( 0.0000,  0.0000,  0.0000)
  11 Li     5.261283    3.021095   15.404095    ( 0.0000,  0.0000,  0.0000)
  12 Li     0.067471    2.010727   15.891373    ( 0.0000,  0.0000,  0.0000)
  13 Li    -1.725834    5.070932   15.206360    ( 0.0000,  0.0000,  0.0000)
  14 Li     3.524564    1.917761   14.867538    ( 0.0000,  0.0000,  0.0000)
  15 Li     1.739484    5.052373   15.431066    ( 0.0000,  0.0000,  0.0000)
  16 Li     3.506465    0.000182    3.465092    ( 0.0000,  0.0000,  0.0000)
  17 Li     1.753085    3.037125    3.465092    ( 0.0000,  0.0000,  0.0000)
  18 Li     7.013175    0.000182    3.465092    ( 0.0000,  0.0000,  0.0000)
  19 Li     5.259795    3.037125    3.465092    ( 0.0000,  0.0000,  0.0000)
  20 Li    -0.000262    2.024791    3.465092    ( 0.0000,  0.0000,  0.0000)
  21 Li    -1.753642    5.061734    3.465092    ( 0.0000,  0.0000,  0.0000)
  22 Li     3.506448    2.024791    3.465092    ( 0.0000,  0.0000,  0.0000)
  23 Li     1.753068    5.061734    3.465092    ( 0.0000,  0.0000,  0.0000)
  24 Li     1.753084    1.012487    5.431887    ( 0.0000,  0.0000,  0.0000)
  25 Li    -0.000296    4.049430    5.431887    ( 0.0000,  0.0000,  0.0000)
  26 Li     5.259794    1.012487    5.431887    ( 0.0000,  0.0000,  0.0000)
  27 Li     3.506414    4.049430    5.431887    ( 0.0000,  0.0000,  0.0000)
  28 Li     3.506429    0.000182    7.378027    ( 0.0000,  0.0000,  0.0000)
  29 Li     1.753049    3.037125    7.378027    ( 0.0000,  0.0000,  0.0000)
  30 Li     7.013139    0.000182    7.378027    ( 0.0000,  0.0000,  0.0000)
  31 Li     5.259759    3.037125    7.378027    ( 0.0000,  0.0000,  0.0000)
  32 Li    -0.000297    2.024791    7.378027    ( 0.0000,  0.0000,  0.0000)
  33 Li    -1.753677    5.061734    7.378027    ( 0.0000,  0.0000,  0.0000)
  34 Li     3.506413    2.024791    7.378027    ( 0.0000,  0.0000,  0.0000)
  35 Li     1.753033    5.061734    7.378027    ( 0.0000,  0.0000,  0.0000)
  36 Li     1.752765    1.012485    9.339017    ( 0.0000,  0.0000,  0.0000)
  37 Li    -0.001460    4.049623    9.354137    ( 0.0000,  0.0000,  0.0000)
  38 Li     5.259096    1.013366    9.354365    ( 0.0000,  0.0000,  0.0000)
  39 Li     3.506661    4.049554    9.324362    ( 0.0000,  0.0000,  0.0000)
  40 Li     3.507232    0.000529   11.362488    ( 0.0000,  0.0000,  0.0000)
  41 Li     1.749111    3.037693   11.271836    ( 0.0000,  0.0000,  0.0000)
  42 Li     7.009968    0.003546   11.266114    ( 0.0000,  0.0000,  0.0000)
  43 Li     5.261340    3.035451   11.322090    ( 0.0000,  0.0000,  0.0000)
  44 Li    -0.002744    2.027224   11.361989    ( 0.0000,  0.0000,  0.0000)
  45 Li    -1.750943    5.061687   11.268750    ( 0.0000,  0.0000,  0.0000)
  46 Li     3.506970    2.022783   11.273877    ( 0.0000,  0.0000,  0.0000)
  47 Li     1.748728    5.063280   11.315872    ( 0.0000,  0.0000,  0.0000)
  48 N      1.753084    1.012487    3.439048    ( 0.0000,  0.0000,  0.0000)
[...]
  1. axis:    yes    7.013420    0.000000    0.000000    40     0.1518
  2. axis:    yes   -3.506760    6.073886    0.000000    40     0.1518
  3. axis:    yes    0.000000    0.000000   29.936001   160     0.1871

  Lengths:   7.013420   7.013520  29.936001
  Angles:   90.000000  90.000000 120.000000

Effective grid spacing dv^(1/3) = 0.1708

                     log10-error:    total        iterations:
           time      wfs    density  energy       fermi  poisson
iter:   1  16:54:46  -4.38         -235.073114    2             
iter:   2  16:55:27  -5.24  -3.04  -235.069833    3             
iter:   3  16:56:09  -5.90  -2.69  -235.070848    3             
iter:   4  16:56:50  -5.98  -3.55  -235.070230    2             
iter:   5  16:57:33  -6.96  -3.51  -235.070529    2             
iter:   6  16:58:14  -6.50  -3.70  -235.070821    2             
iter:   7  16:58:56  -6.67  -3.89  -235.070740    2             
iter:   8  16:59:37  -7.40  -4.04  -235.070634    2             

Converged after 8 iterations.

Dipole moment: (-1.095572, -0.566067, -11.439463) |e|*Ang

Energy contributions relative to reference atoms: (reference = -33644.147259)

Kinetic:       +251.932603
Potential:     -186.244296
External:        +0.000000
XC:            -299.437887
Entropy (-ST):   -0.075973
Local:           -1.283067
--------------------------
Free energy:   -235.108621
Extrapolated:  -235.070634

Fermi level: -0.28563

Showing only first 2 kpts
 Kpt  Band  Eigenvalues  Occupancy
  0    62     -0.62495    0.07991
  0    63     -0.09259    0.00165
  0    64     -0.05490    0.00078
  0    65      0.09189    0.00004

  1    62     -0.65429    0.15990
  1    63     -0.33149    0.11432
  1    64     -0.18219    0.01795
  1    65      0.29318    0.00000



Forces in eV/Ang:
  0 Li   -0.00006    0.00008   -0.06018
  1 Li   -0.00006    0.00003   -0.05993
  2 Li   -0.00009    0.00006   -0.05991
  3 Li   -0.00009    0.00002   -0.05984
  4 Li   -0.00353   -0.00733   -0.00105
  5 Li   -0.00597    0.00047   -0.00642
  6 Li    0.00172   -0.00457   -0.01359
  7 Li    0.00820    0.01462    0.01507
  8 Li   -0.00794    0.00037   -0.02975
  9 Li    0.00384    0.00349   -0.01654
 10 Li   -0.00732   -0.00862   -0.04780
 11 Li    0.00453   -0.01637   -0.00560
 12 Li    0.00686   -0.00750   -0.02376
 13 Li   -0.00496   -0.01036   -0.03282
 14 Li    0.00046    0.00935   -0.01772
 15 Li   -0.01445   -0.00613   -0.00015
 16 Li    0.00035   -0.00023   -0.04885
 17 Li    0.00000    0.00021   -0.04830
 18 Li   -0.00032   -0.00026   -0.04961
 19 Li    0.00001   -0.00017   -0.04860
 20 Li   -0.00035    0.00032   -0.04874
 21 Li   -0.00004   -0.00029   -0.04960
 22 Li    0.00021    0.00023   -0.04831
 23 Li   -0.00012    0.00005   -0.04872
 24 Li    0.00072    0.00148   -0.06521
 25 Li    0.00076   -0.00075   -0.06603
 26 Li   -0.00083    0.00061   -0.06643
 27 Li   -0.00083   -0.00167   -0.07447
 28 Li   -0.00268   -0.00876    0.01517
 29 Li   -0.00969    0.00341   -0.03656
 30 Li    0.00286    0.00440    0.03567
 31 Li    0.01034    0.00567   -0.00280
 32 Li   -0.00571   -0.00632    0.00744
 33 Li    0.00265    0.00625    0.03458
 34 Li    0.00602   -0.00730   -0.03855
 35 Li   -0.00200    0.01219    0.00266
 36 Li    0.01305    0.02211    0.02098
 37 Li    0.01268   -0.00505    0.01015
 38 Li   -0.01081    0.00892    0.00893
 39 Li   -0.01142   -0.02065   -0.01263
 40 Li    0.00351    0.00526   -0.00135
 41 Li   -0.00278   -0.00064    0.00580
 42 Li    0.00220    0.01153   -0.00778
 43 Li    0.00491   -0.00317   -0.00700
 44 Li    0.00305    0.00465   -0.01050
 45 Li    0.01001    0.00813   -0.01296
 46 Li    0.00096   -0.00363   -0.00939
 47 Li   -0.00596    0.00305   -0.01733
 48 N    -0.00092   -0.00122    0.12648
 49 N    -0.00071    0.00062    0.11626
 50 N     0.00036   -0.00022    0.11473
 51 N     0.00021    0.00097    0.11598
 52 N     0.01550    0.03026    0.20834
 53 N     0.01477   -0.01183    0.13401
 54 N    -0.01531    0.01198    0.12611
 55 N    -0.01199   -0.02345   -0.01886
 56 N    -0.00327   -0.00546    0.01036
 57 N    -0.00231    0.00216   -0.00022
 58 N     0.00354   -0.00107   -0.00430
 59 N     0.00239    0.00361   -0.00763
 60 N     0.00183    0.00148    0.00779
 61 N     0.00666   -0.00762    0.00972
 62 N    -0.01247    0.00053    0.00490
 63 N     0.00047   -0.00070    0.01779
 64 Li   -0.00398   -0.00305    0.00510

System changes: positions 

Initializing position-dependent things.

Density initialized from wave functions
                                         
                                         
                                         
                                         
                                         
           Li      LLi                   
             Li        N                 
                 Li       Li             
              Li N  LiiLiN   Li          
                                         
           Li   Li Li    Li              
              N   Li   N  Li             
             Li      Li                  
              LiN   Li LiN               
                            Li           
           Li   Li Li    Li              
              N   Li   N  Li             
             Li      Li                  
              LiN   Li LiN  Li           
                                         
           Li N Li Li  N Li              
                  Li      Li             
             Li N    Li  N               
              Li    Li Li   Li           
                                         
                Li       Li              
                                         
                                         
                                         
                                         

Positions:
   0 Li     1.753189    1.012426    1.530029    ( 0.0000,  0.0000,  0.0000)
   1 Li    -0.000191    4.049369    1.530029    ( 0.0000,  0.0000,  0.0000)
   2 Li     5.259899    1.012426    1.530029    ( 0.0000,  0.0000,  0.0000)
   3 Li     3.506519    4.049369    1.530029    ( 0.0000,  0.0000,  0.0000)
   4 Li     1.610303    0.765644   13.383645    ( 0.0000,  0.0000,  0.0000)
   5 Li    -0.164132    4.219460   13.311988    ( 0.0000,  0.0000,  0.0000)
   6 Li     5.480248    0.934982   13.303491    ( 0.0000,  0.0000,  0.0000)
   7 Li     3.583582    4.197335   13.180036    ( 0.0000,  0.0000,  0.0000)
   8 Li     3.592475    0.117792   16.009800    ( 0.0000,  0.0000,  0.0000)
   9 Li     1.557859    2.981057   14.630535    ( 0.0000,  0.0000,  0.0000)
  10 Li     7.012409    0.071132   15.438854    ( 0.0000,  0.0000,  0.0000)
  11 Li     5.268576    2.998626   15.166100    ( 0.0000,  0.0000,  0.0000)
  12 Li     0.057132    2.169267   16.040302    ( 0.0000,  0.0000,  0.0000)
  13 Li    -1.707751    5.081403   15.470390    ( 0.0000,  0.0000,  0.0000)
  14 Li     3.553094    1.831663   14.611984    ( 0.0000,  0.0000,  0.0000)
  15 Li     1.726605    5.041195   15.206311    ( 0.0000,  0.0000,  0.0000)
  16 Li     3.506465    0.000182    3.465092    ( 0.0000,  0.0000,  0.0000)
  17 Li     1.753085    3.037125    3.465092    ( 0.0000,  0.0000,  0.0000)
  18 Li     7.013175    0.000182    3.465092    ( 0.0000,  0.0000,  0.0000)
  19 Li     5.259795    3.037125    3.465092    ( 0.0000,  0.0000,  0.0000)
  20 Li    -0.000262    2.024791    3.465092    ( 0.0000,  0.0000,  0.0000)
  21 Li    -1.753642    5.061734    3.465092    ( 0.0000,  0.0000,  0.0000)
  22 Li     3.506448    2.024791    3.465092    ( 0.0000,  0.0000,  0.0000)
  23 Li     1.753068    5.061734    3.465092    ( 0.0000,  0.0000,  0.0000)
  24 Li     1.753084    1.012487    5.431887    ( 0.0000,  0.0000,  0.0000)
  25 Li    -0.000296    4.049430    5.431887    ( 0.0000,  0.0000,  0.0000)
  26 Li     5.259794    1.012487    5.431887    ( 0.0000,  0.0000,  0.0000)
  27 Li     3.506414    4.049430    5.431887    ( 0.0000,  0.0000,  0.0000)
  28 Li     3.506429    0.000182    7.378027    ( 0.0000,  0.0000,  0.0000)
  29 Li     1.753049    3.037125    7.378027    ( 0.0000,  0.0000,  0.0000)
  30 Li     7.013139    0.000182    7.378027    ( 0.0000,  0.0000,  0.0000)
  31 Li     5.259759    3.037125    7.378027    ( 0.0000,  0.0000,  0.0000)
  32 Li    -0.000297    2.024791    7.378027    ( 0.0000,  0.0000,  0.0000)
  33 Li    -1.753677    5.061734    7.378027    ( 0.0000,  0.0000,  0.0000)
  34 Li     3.506413    2.024791    7.378027    ( 0.0000,  0.0000,  0.0000)
  35 Li     1.753033    5.061734    7.378027    ( 0.0000,  0.0000,  0.0000)
  36 Li     1.773083    1.052138    9.377543    ( 0.0000,  0.0000,  0.0000)
  37 Li     0.017826    4.038710    9.361423    ( 0.0000,  0.0000,  0.0000)
  38 Li     5.242957    1.029501    9.359192    ( 0.0000,  0.0000,  0.0000)
  39 Li     3.492233    4.023018    9.315735    ( 0.0000,  0.0000,  0.0000)
  40 Li     3.515755    0.017465   11.443971    ( 0.0000,  0.0000,  0.0000)
  41 Li     1.755667    3.047355   11.393349    ( 0.0000,  0.0000,  0.0000)
  42 Li     7.013147    0.012555   11.198204    ( 0.0000,  0.0000,  0.0000)
  43 Li     5.262680    3.040058   11.305927    ( 0.0000,  0.0000,  0.0000)
  44 Li     0.006969    2.043161   11.430844    ( 0.0000,  0.0000,  0.0000)
  45 Li    -1.744060    5.069344   11.188438    ( 0.0000,  0.0000,  0.0000)
  46 Li     3.510174    2.032921   11.362180    ( 0.0000,  0.0000,  0.0000)
  47 Li     1.749418    5.066978   11.272234    ( 0.0000,  0.0000,  0.0000)
  48 N      1.753084    1.012487    3.439048    ( 0.0000,  0.0000,  0.0000)
  49 N     -0.000296    4.049430    3.439048    ( 0.0000,  0.0000,  0.0000)
  50 N      5.259794    1.012487    3.439048    ( 0.0000,  0.0000,  0.0000)
  51 N      3.506414    4.049430    3.439048    ( 0.0000,  0.0000,  0.0000)
  52 N      1.753031    1.012517    7.360963    ( 0.0000,  0.0000,  0.0000)
  53 N     -0.000349    4.049460    7.360963    ( 0.0000,  0.0000,  0.0000)
  54 N      5.259741    1.012517    7.360963    ( 0.0000,  0.0000,  0.0000)
  55 N      3.506361    4.049460    7.360963    ( 0.0000,  0.0000,  0.0000)
  56 N      1.749436    1.009436   11.371852    ( 0.0000,  0.0000,  0.0000)
  57 N     -0.004743    4.067095   11.323009    ( 0.0000,  0.0000,  0.0000)
  58 N      5.273888    1.018109   11.318317    ( 0.0000,  0.0000,  0.0000)
  59 N      3.511788    4.062837   11.229474    ( 0.0000,  0.0000,  0.0000)
  60 N      1.816526    1.121816   15.381271    ( 0.0000,  0.0000,  0.0000)
  61 N     -0.008775    4.078149   15.252177    ( 0.0000,  0.0000,  0.0000)
  62 N      5.284173    1.018252   15.240592    ( 0.0000,  0.0000,  0.0000)
  63 N      3.472650    3.985626   15.067173    ( 0.0000,  0.0000,  0.0000)
  64 Li     2.798025    2.772119   16.506732    ( 0.0000,  0.0000,  0.0000)

Unit cell:
           periodic     x           y           z      points  spacing
  1. axis:    yes    7.013420    0.000000    0.000000    40     0.1518
  2. axis:    yes   -3.506760    6.073886    0.000000    40     0.1518
  3. axis:    yes    0.000000    0.000000   29.936001   160     0.1871

  Lengths:   7.013420   7.013520  29.936001
  Angles:   90.000000  90.000000 120.000000

Effective grid spacing dv^(1/3) = 0.1708

                     log10-error:    total        iterations:
           time      wfs    density  energy       fermi  poisson
iter:   1  17:01:33  -4.18         -235.079735    3             
iter:   2  17:02:14  -4.72  -2.68  -235.082656    3             
iter:   3  17:02:55  -5.26  -2.30  -235.071991    3             
iter:   4  17:03:37  -5.68  -3.29  -235.069979    3             
iter:   5  17:04:19  -6.40  -3.05  -235.070747    2             
iter:   6  17:05:00  -6.41  -3.47  -235.071385    2             
iter:   7  17:05:42  -6.52  -3.79  -235.071221    2             
iter:   8  17:06:24  -7.32  -3.99  -235.071121    2             
iter:   9  17:07:08  -7.31  -4.07  -235.071150    2             

Converged after 9 iterations.

Dipole moment: (-1.097431, -0.555714, -11.440531) |e|*Ang

Energy contributions relative to reference atoms: (reference = -33644.147259)

Kinetic:       +251.956262
Potential:     -186.265020
External:        +0.000000
XC:            -299.441629
Entropy (-ST):   -0.075936
Local:           -1.282796
--------------------------
Free energy:   -235.109118
Extrapolated:  -235.071150

Fermi level: -0.28584

Showing only first 2 kpts
 Kpt  Band  Eigenvalues  Occupancy
  0    62     -0.62838    0.07992
  0    63     -0.09246    0.00164
  0    64     -0.05437    0.00077
  0    65      0.09081    0.00004

  1    62     -0.65692    0.15990
  1    63     -0.33145    0.11415
  1    64     -0.18221    0.01788
  1    65      0.29251    0.00000



Forces in eV/Ang:
  0 Li   -0.00006    0.00008   -0.06024
  1 Li   -0.00006    0.00003   -0.06001
  2 Li   -0.00009    0.00006   -0.05998
  3 Li   -0.00009    0.00002   -0.05991
  4 Li   -0.00028   -0.00204   -0.00407
  5 Li   -0.00336   -0.00025   -0.00660
  6 Li   -0.00044   -0.00300   -0.01252
  7 Li    0.00508    0.00933    0.03512
  8 Li   -0.00509   -0.00229   -0.02481
  9 Li    0.00798    0.00028   -0.01507
 10 Li   -0.01800   -0.00158   -0.03451
 11 Li    0.00921   -0.01160    0.00345
 12 Li    0.00246   -0.00679   -0.01892
 13 Li    0.00593   -0.01627   -0.01986
 14 Li   -0.00440    0.01032   -0.01593
 15 Li   -0.01153   -0.00005    0.00821
 16 Li    0.00036   -0.00023   -0.04871
 17 Li   -0.00001    0.00021   -0.04813
 18 Li   -0.00033   -0.00025   -0.04954
 19 Li    0.00002   -0.00018   -0.04846
 20 Li   -0.00035    0.00033   -0.04861
 21 Li   -0.00002   -0.00029   -0.04952
 22 Li    0.00021    0.00023   -0.04814
 23 Li   -0.00014    0.00004   -0.04858
 24 Li    0.00077    0.00155   -0.06508
 25 Li    0.00081   -0.00077   -0.06595
 26 Li   -0.00089    0.00063   -0.06637
 27 Li   -0.00088   -0.00174   -0.07474
 28 Li   -0.00274   -0.00899    0.01529
 29 Li   -0.01043    0.00322   -0.03825
 30 Li    0.00294    0.00469    0.03675
 31 Li    0.01096    0.00566   -0.00280
 32 Li   -0.00588   -0.00649    0.00781
 33 Li    0.00283    0.00644    0.03559
 34 Li    0.00625   -0.00799   -0.04030
 35 Li   -0.00226    0.01271    0.00251
 36 Li    0.01172    0.02012    0.01298
 37 Li    0.01149   -0.00482    0.00498
 38 Li   -0.00979    0.00812    0.00362
 39 Li   -0.00988   -0.01791   -0.00386
 40 Li    0.00195    0.00379    0.00204
 41 Li   -0.00269   -0.00097    0.00613
 42 Li    0.00209    0.01070   -0.00607
 43 Li    0.00508   -0.00189   -0.00728
 44 Li    0.00254    0.00322   -0.00718
 45 Li    0.00950    0.00735   -0.01128
 46 Li    0.00062   -0.00342   -0.00939
 47 Li   -0.00477    0.00340   -0.01782
 48 N    -0.00102   -0.00136    0.12688
 49 N    -0.00079    0.00063    0.11684
 50 N     0.00043   -0.00027    0.11510
 51 N     0.00026    0.00107    0.11583
 52 N     0.01622    0.03131    0.21071
 53 N     0.01542   -0.01202    0.13785
 54 N    -0.01594    0.01234    0.12965
 55 N    -0.01263   -0.02452   -0.02130
 56 N    -0.00191   -0.00365    0.00905
 57 N    -0.00166    0.00232   -0.00481
 58 N     0.00303    0.00032   -0.00852
 59 N     0.00232    0.00306   -0.00950
 60 N    -0.00441   -0.00899   -0.00330
 61 N    -0.01579   -0.00105    0.00118
 62 N     0.00465   -0.01328   -0.00580
 63 N     0.01097    0.01722   -0.01673
 64 Li   -0.00877   -0.01160    0.00497

Timing:                                      incl.     excl.
-------------------------------------------------------------------
Density initialized from wave functions:   256.924   256.923   0.9% |
 Symmetrize density:                         0.001     0.001   0.0% |
Forces:                                    736.852   736.852   2.6% ||
Hamiltonian:                               160.771     0.594   0.0% |
 Atomic:                                    23.453    12.213   0.0% |
  XC Correction:                            11.240    11.240   0.0% |
 Calculate atomic Hamiltonians:             69.569    69.569   0.2% |
 Communicate:                                1.424     1.424   0.0% |
 Initialize Hamiltonian:                     0.001     0.001   0.0% |
 Poisson:                                    0.135     0.135   0.0% |
 XC 3D grid:                                65.594    65.594   0.2% |
LCAO initialization:                        17.411     0.051   0.0% |
 LCAO eigensolver:                           3.842     0.000   0.0% |
  Calculate projections:                     0.028     0.028   0.0% |
  DenseAtomicCorrection:                     0.020     0.020   0.0% |
  Distribute overlap matrix:                 0.001     0.001   0.0% |
  Orbital Layouts:                           0.215     0.215   0.0% |
  Potential matrix:                          3.575     3.575   0.0% |
  Sum over cells:                            0.004     0.004   0.0% |
 LCAO to grid:                              11.988    11.988   0.0% |
 Set positions (LCAO WFS):                   1.529     0.334   0.0% |
  Basic WFS set positions:                   0.002     0.002   0.0% |
  Basis functions set positions:             0.000     0.000   0.0% |
  P tci:                                     0.590     0.590   0.0% |
  ST tci:                                    0.252     0.252   0.0% |
  mktci:                                     0.352     0.352   0.0% |
PWDescriptor:                                1.134     1.134   0.0% |
Redistribute:                                0.221     0.221   0.0% |
SCF-cycle:                               24749.912  9970.932  35.8% |-------------|
 Davidson:                               10558.475  3953.297  14.2% |-----|
  Apply H:                                 998.345   994.280   3.6% ||
   HMM T:                                    4.065     4.065   0.0% |
  Subspace diag:                          1570.835     0.128   0.0% |
   calc_h_matrix:                         1103.339   168.397   0.6% |
    Apply H:                               934.942   931.056   3.3% ||
     HMM T:                                  3.886     3.886   0.0% |
   diagonalize:                             55.865    55.865   0.2% |
   rotate_psi:                             411.502   411.502   1.5% ||
  calc. matrices:                         3065.158  1185.774   4.3% |-|
   Apply H:                               1879.384  1871.439   6.7% |--|
    HMM T:                                   7.945     7.945   0.0% |
  diagonalize:                             163.852   163.852   0.6% |
  rotate_psi:                              806.987   806.987   2.9% ||
 Density:                                 2037.677     0.012   0.0% |
  Atomic density matrices:                   3.264     3.264   0.0% |
  Mix:                                    1163.720  1163.720   4.2% |-|
  Multipole moments:                         0.472     0.472   0.0% |
  Pseudo density:                          870.209   870.196   3.1% ||
   Symmetrize density:                       0.013     0.013   0.0% |
 Hamiltonian:                             1942.467     6.831   0.0% |
  Atomic:                                  298.440   185.892   0.7% |
   XC Correction:                          112.548   112.548   0.4% |
  Calculate atomic Hamiltonians:           830.150   830.150   3.0% ||
  Communicate:                              21.335    21.335   0.1% |
  Poisson:                                   1.563     1.563   0.0% |
  XC 3D grid:                              784.148   784.148   2.8% ||
 Orthonormalize:                           240.361     0.011   0.0% |
  calc_s_matrix:                             7.222     7.222   0.0% |
  inverse-cholesky:                        145.300   145.300   0.5% |
  projections:                              75.349    75.349   0.3% |
  rotate_psi_s:                             12.479    12.479   0.0% |
Set symmetry:                                0.001     0.001   0.0% |
Other:                                    1932.350  1932.350   6.9% |--|
-------------------------------------------------------------------
Total:                                             27855.576 100.0%

Date: Tue Sep  7 17:07:25 2021
