
  ___ ___ ___ _ _ _  
 |   |   |_  | | | | 
 | | | | | . | | | | 
 |__ |  _|___|_____|  20.1.0
 |___|_|             

User:   jngwng01@n944025
Date:   Tue Sep  7 09:23:09 2021
Arch:   x86_64
Pid:    25669
Python: 3.8.5
gpaw:   /uls/7/gpaw-20.1.0/lib/python3.8/site-packages/gpaw-20.1.0-py3.8-linux-x86_64.egg/gpaw
_gpaw:  /uls/7/gpaw-20.1.0/lib/python3.8/site-packages/gpaw-20.1.0-py3.8-linux-x86_64.egg/
        _gpaw.cpython-38-x86_64-linux-gnu.so
ase:    /uls/7/gpaw-20.1.0/lib/python3.8/site-packages/ase-3.20.1-py3.8.egg/ase (version 3.20.1)
numpy:  /uls/7/gpaw-20.1.0/lib/python3.8/site-packages/numpy (version 1.19.2)
scipy:  /uls/7/gpaw-20.1.0/lib/python3.8/site-packages/scipy-1.5.2-py3.8-linux-x86_64.egg/scipy (version 1.5.2)
libxc:  4.3.4
units:  Angstrom and eV
cores: 16
OMP_NUM_THREADS: 1

Input parameters:
  convergence: {density: 0.0001,
                eigenstates: 1e-07}
  kpts: [5 5 1]
  mode: {ecut: 500.0,
         gammacentered: False,
         name: pw}
  occupations: {name: fermi-dirac,
                width: 0.05}
  xc: PBE

System changes: positions, numbers, cell, pbc, initial_charges, initial_magmoms 

Initialize ...

Li-setup:
  name: Lithium
  id: 830b4218f175192f93f959cfc0aad614
  Z: 3
  valence: 1
  core: 2
  charge: 0.0
  file: /uls/7/gpaw-20.1.0/setups/gpaw-setups-0.9.20000/Li.PBE.gz
  compensation charges: gauss, rc=0.33, lmax=2
  cutoffs: 1.91(filt), 2.55(core),
  valence states:
                energy  radius
    2s(1.00)    -2.874   1.058
    2p(0.00)    -1.090   1.058
    *s          24.337   1.058

  Using partial waves for Li as LCAO basis

N-setup:
  name: Nitrogen
  id: f7500608b86eaa90eef8b1d9a670dc53
  Z: 7
  valence: 5
  core: 2
  charge: 0.0
  file: /uls/7/gpaw-20.1.0/setups/gpaw-setups-0.9.20000/N.PBE.gz
  compensation charges: gauss, rc=0.18, lmax=2
  cutoffs: 1.11(filt), 0.96(core),
  valence states:
                energy  radius
    2s(2.00)   -18.583   0.603
    2p(3.00)    -7.089   0.529
    *s           8.629   0.603
    *p          20.123   0.529
    *d           0.000   0.577

  Using partial waves for N as LCAO basis

Reference energy: -33644.147259

Spin-paired calculation

Occupation numbers:
  Fermi-Dirac: width=0.0500 eV

Convergence criteria:
  Maximum total energy change: 0.0005 eV / electron
  Maximum integral of absolute density change: 0.0001 electrons
  Maximum integral of absolute eigenstate change: 1e-07 eV^2
  Maximum number of iterations: 333

Symmetries present (total): 1

  ( 1  0  0)
  ( 0  1  0)
  ( 0  0  1)

25 k-points: 5 x 5 x 1 Monkhorst-Pack grid
13 k-points in the irreducible part of the Brillouin zone
       k-points in crystal coordinates                weights
   0:     0.00000000    0.00000000    0.00000000          1/25
   1:     0.00000000    0.20000000    0.00000000          2/25
   2:     0.00000000    0.40000000    0.00000000          2/25
   3:     0.20000000   -0.40000000    0.00000000          2/25
   4:     0.20000000   -0.20000000    0.00000000          2/25
   5:     0.20000000    0.00000000    0.00000000          2/25
   6:     0.20000000    0.20000000    0.00000000          2/25
   7:     0.20000000    0.40000000    0.00000000          2/25
   8:     0.40000000   -0.40000000    0.00000000          2/25
   9:     0.40000000   -0.20000000    0.00000000          2/25
          ...
  12:     0.40000000    0.40000000    0.00000000          2/25

Wave functions: Plane wave expansion
  Cutoff energy: 500.000 eV
  Number of coefficients (min, max): 32263, 32394
  Pulay-stress correction: 0.000000 eV/Ang^3 (de/decut=0.000000)
  Using FFTW library
  ScaLapack parameters: grid=1x1, blocksize=None
  Wavefunction extrapolation:
    Improved wavefunction reuse through dual PAW basis 

Eigensolver
   Davidson(niter=2, smin=None, normalize=True) 

Densities:
  Coarse grid: 40*40*160 grid
  Fine grid: 80*80*320 grid
  Total Charge: 0.000000 

Density mixing:
  Method: separate
  Backend: pulay
  Linear mixing parameter: 0.05
  Mixing with 5 old densities
  Damping of long wave oscillations: 50 

Hamiltonian:
  XC and Coulomb potentials evaluated on a 80*80*320 grid
  Using the PBE Exchange-Correlation functional
 

XC parameters: PBE with 2 nearest neighbor stencil

Memory estimate:
  Process memory now: 240.20 MiB
  Calculator: 170.79 MiB
    Density: 56.64 MiB
      Arrays: 25.39 MiB
      Localized functions: 21.49 MiB
      Mixer: 9.77 MiB
    Hamiltonian: 17.13 MiB
      Arrays: 16.60 MiB
      XC: 0.00 MiB
      Poisson: 0.00 MiB
      vbar: 0.52 MiB
    Wavefunctions: 97.02 MiB
      Arrays psit_nG: 40.53 MiB
      Eigensolver: 44.03 MiB
      Projections: 0.28 MiB
      Projectors: 2.10 MiB
      PW-descriptor: 10.07 MiB

Total number of cores used: 16
Parallelization over k-points: 8
Domain decomposition: 1 x 1 x 2
                      2 x 2 x 4 (xc only)

Number of atoms: 65
Number of atomic orbitals: 260
Number of bands in calculation: 82
Number of valence electrons: 129
Bands to converge: occupied

... initialized

Initializing position-dependent things.

Density initialized from atomic densities
Creating initial wave functions:
  82 bands from LCAO basis set

                                         
                                         
                                         
                                         
                                         
                                         
           Li      Li                    
              N        N  Li             
             Li   Li Li                  
              LiN   Li LiN               
                            Li           
           Li   Li Li    Li              
              N   Li   N  Li             
             Li      Li                  
              LiN   Li LiN  Li           
                                         
           Li N Li Li  N Li              
                  Li      Li             
             Li N    Li  N               
              Li    Li Li   Li           
                                         
           Li N Li Li  N Li              
                  Li      Li             
             Li N    Li  N               
              Li    Li Li   Li           
                                         
                Li       Li              
                                         
                                         
                                         
                                         

Positions:
   0 Li     1.753189    1.012426    1.530029    ( 0.0000,  0.0000,  0.0000)
   1 Li    -0.000191    4.049369    1.530029    ( 0.0000,  0.0000,  0.0000)
   2 Li     5.259899    1.012426    1.530029    ( 0.0000,  0.0000,  0.0000)
   3 Li     3.506519    4.049369    1.530029    ( 0.0000,  0.0000,  0.0000)
   4 Li     1.751013    1.016053   13.224221    ( 0.0000,  0.0000,  0.0000)
   5 Li     0.004269    4.051473   13.303235    ( 0.0000,  0.0000,  0.0000)
   6 Li     5.260384    1.009069   13.303090    ( 0.0000,  0.0000,  0.0000)
   7 Li     3.500418    4.050555   13.245625    ( 0.0000,  0.0000,  0.0000)
   8 Li     3.547574   -0.050620   15.536174    ( 0.0000,  0.0000,  0.0000)
   9 Li     1.701049    3.089927   15.057892    ( 0.0000,  0.0000,  0.0000)
  10 Li     6.971183    0.010651   15.117902    ( 0.0000,  0.0000,  0.0000)
  11 Li     5.313615    3.034064   15.667184    ( 0.0000,  0.0000,  0.0000)
  12 Li    -0.068924    2.038470   15.537348    ( 0.0000,  0.0000,  0.0000)
  13 Li    -1.724346    5.032697   15.109885    ( 0.0000,  0.0000,  0.0000)
  14 Li     3.575983    2.006422   15.046611    ( 0.0000,  0.0000,  0.0000)
  15 Li     1.723612    5.105410   15.682694    ( 0.0000,  0.0000,  0.0000)
  16 Li     3.506465    0.000182    3.465092    ( 0.0000,  0.0000,  0.0000)
  17 Li     1.753085    3.037125    3.465092    ( 0.0000,  0.0000,  0.0000)
  18 Li     7.013175    0.000182    3.465092    ( 0.0000,  0.0000,  0.0000)
  19 Li     5.259795    3.037125    3.465092    ( 0.0000,  0.0000,  0.0000)
  20 Li    -0.000262    2.024791    3.465092    ( 0.0000,  0.0000,  0.0000)
  21 Li    -1.753642    5.061734    3.465092    ( 0.0000,  0.0000,  0.0000)
  22 Li     3.506448    2.024791    3.465092    ( 0.0000,  0.0000,  0.0000)
  23 Li     1.753068    5.061734    3.465092    ( 0.0000,  0.0000,  0.0000)
  24 Li     1.753084    1.012487    5.431887    ( 0.0000,  0.0000,  0.0000)
  25 Li    -0.000296    4.049430    5.431887    ( 0.0000,  0.0000,  0.0000)
  26 Li     5.259794    1.012487    5.431887    ( 0.0000,  0.0000,  0.0000)
  27 Li     3.506414    4.049430    5.431887    ( 0.0000,  0.0000,  0.0000)
  28 Li     3.506429    0.000182    7.378027    ( 0.0000,  0.0000,  0.0000)
  29 Li     1.753049    3.037125    7.378027    ( 0.0000,  0.0000,  0.0000)
  30 Li     7.013139    0.000182    7.378027    ( 0.0000,  0.0000,  0.0000)
  31 Li     5.259759    3.037125    7.378027    ( 0.0000,  0.0000,  0.0000)
  32 Li    -0.000297    2.024791    7.378027    ( 0.0000,  0.0000,  0.0000)
  33 Li    -1.753677    5.061734    7.378027    ( 0.0000,  0.0000,  0.0000)
  34 Li     3.506413    2.024791    7.378027    ( 0.0000,  0.0000,  0.0000)
  35 Li     1.753033    5.061734    7.378027    ( 0.0000,  0.0000,  0.0000)
  36 Li     1.752930    1.013639    9.330391    ( 0.0000,  0.0000,  0.0000)
  37 Li     0.000650    4.049628    9.353077    ( 0.0000,  0.0000,  0.0000)
  38 Li     5.259488    1.011906    9.353075    ( 0.0000,  0.0000,  0.0000)
  39 Li     3.504529    4.049706    9.337419    ( 0.0000,  0.0000,  0.0000)
  40 Li     3.507112   -0.000850   11.325094    ( 0.0000,  0.0000,  0.0000)
  41 Li     1.750642    3.039037   11.265715    ( 0.0000,  0.0000,  0.0000)
  42 Li     7.011071    0.001400   11.267485    ( 0.0000,  0.0000,  0.0000)
  43 Li     5.261158    3.037526   11.342767    ( 0.0000,  0.0000,  0.0000)
  44 Li    -0.003867    2.026230   11.325050    ( 0.0000,  0.0000,  0.0000)
  45 Li    -1.753103    5.061127   11.267972    ( 0.0000,  0.0000,  0.0000)
  46 Li     3.508015    2.024713   11.266189    ( 0.0000,  0.0000,  0.0000)
  47 Li     1.750865    5.064213   11.341920    ( 0.0000,  0.0000,  0.0000)
  48 N      1.753084    1.012487    3.439048    ( 0.0000,  0.0000,  0.0000)
  49 N     -0.000296    4.049430    3.439048    ( 0.0000,  0.0000,  0.0000)
  50 N      5.259794    1.012487    3.439048    ( 0.0000,  0.0000,  0.0000)
  51 N      3.506414    4.049430    3.439048    ( 0.0000,  0.0000,  0.0000)
  52 N      1.753031    1.012517    7.360963    ( 0.0000,  0.0000,  0.0000)
  53 N     -0.000349    4.049460    7.360963    ( 0.0000,  0.0000,  0.0000)
  54 N      5.259741    1.012517    7.360963    ( 0.0000,  0.0000,  0.0000)
  55 N      3.506361    4.049460    7.360963    ( 0.0000,  0.0000,  0.0000)
  56 N      1.752155    1.013121   11.258426    ( 0.0000,  0.0000,  0.0000)
  57 N     -0.001084    4.050291   11.307601    ( 0.0000,  0.0000,  0.0000)
  58 N      5.259281    1.012902   11.307576    ( 0.0000,  0.0000,  0.0000)
  59 N      3.505451    4.050320   11.272082    ( 0.0000,  0.0000,  0.0000)
  60 N      1.742726    0.999745   15.144615    ( 0.0000,  0.0000,  0.0000)
  61 N     -0.013130    4.059029   15.285384    ( 0.0000,  0.0000,  0.0000)
  62 N      5.270047    1.008815   15.285045    ( 0.0000,  0.0000,  0.0000)
  63 N      3.511285    4.059651   15.188021    ( 0.0000,  0.0000,  0.0000)
  64 Li     2.514559    2.286417   17.155637    ( 0.0000,  0.0000,  0.0000)

Unit cell:
           periodic     x           y           z      points  spacing
  1. axis:    yes    7.013420    0.000000    0.000000    40     0.1518
  2. axis:    yes   -3.506760    6.073886    0.000000    40     0.1518
  3. axis:    yes    0.000000    0.000000   29.936001   160     0.1871

  Lengths:   7.013420   7.013520  29.936001
  Angles:   90.000000  90.000000 120.000000

Effective grid spacing dv^(1/3) = 0.1708

                     log10-error:    total        iterations:
           time      wfs    density  energy       fermi  poisson
iter:   1  09:24:43                -274.701220    4             
iter:   2  09:25:23  -0.99  -0.51  -262.255170    5             
iter:   3  09:26:03  -0.41  -0.57  -278.473275    37            
iter:   4  09:26:42  -1.86  -0.52  -251.048002    35            
iter:   5  09:27:22  -2.71  -0.72  -248.368148    4             
iter:   6  09:28:02  -1.38  -0.73  -245.819156    4             
iter:   7  09:28:42  -1.43  -0.79  -240.061977    31            
iter:   8  09:29:22  -1.62  -0.89  -237.874800    32            
iter:   9  09:30:02  -2.11  -0.96  -238.534524    4             
iter:  10  09:30:41  -1.93  -0.91  -237.532098    4             
iter:  11  09:31:21  -1.45  -0.92  -247.471503    35            
iter:  12  09:32:02  -1.87  -0.83  -235.869426    35            
iter:  13  09:32:42  -2.74  -1.01  -238.704945    33            
iter:  14  09:33:22  -2.21  -0.90  -235.568705    36            
iter:  15  09:34:01  -2.76  -1.13  -234.764950    4             
iter:  16  09:34:41  -2.22  -1.27  -234.728102    33            
iter:  17  09:35:21  -2.42  -1.37  -235.033388    4             
iter:  18  09:36:01  -3.22  -1.32  -234.496081    4             
iter:  19  09:36:41  -3.06  -1.49  -234.265445    5             
iter:  20  09:37:21  -2.90  -1.65  -234.167155    3             
iter:  21  09:38:01  -3.03  -1.79  -234.198775    4             
iter:  22  09:38:41  -3.74  -1.71  -234.153356    4             
iter:  23  09:39:21  -4.27  -1.84  -234.155065    3             
iter:  24  09:40:01  -5.10  -1.88  -234.153288    3             
iter:  25  09:40:41  -4.07  -1.85  -234.164254    3             
iter:  26  09:41:22  -3.49  -1.95  -234.156338    3             
iter:  27  09:42:02  -4.00  -2.11  -234.132065    2             
iter:  28  09:42:41  -3.72  -2.30  -234.129645    3             
iter:  29  09:43:21  -4.71  -2.33  -234.129855    3             
iter:  30  09:44:01  -4.71  -2.53  -234.127298    3             
iter:  31  09:44:41  -4.42  -2.35  -234.126974    3             
iter:  32  09:45:20  -5.36  -2.88  -234.125341    2             
iter:  33  09:46:00  -5.52  -2.90  -234.126020    2             
iter:  34  09:46:41  -5.41  -3.09  -234.126358    2             
iter:  35  09:47:21  -6.25  -3.17  -234.125823    2             
iter:  36  09:48:01  -6.32  -3.27  -234.125422    2             
iter:  37  09:48:41  -6.11  -3.38  -234.125113    2             
iter:  38  09:49:20  -6.77  -3.40  -234.125353    2             
iter:  39  09:50:01  -7.32  -3.49  -234.125319    2             
iter:  40  09:50:40  -6.31  -3.53  -234.125717    2             
iter:  41  09:51:20  -6.85  -3.69  -234.125414    2             
iter:  42  09:52:00  -7.87  -4.02  -234.125415    2             

Converged after 42 iterations.

Dipole moment: (-2.777810, 1.594755, -11.361819) |e|*Ang

Energy contributions relative to reference atoms: (reference = -33644.147259)

Kinetic:       +256.517652
Potential:     -188.997338
External:        +0.000000
XC:            -300.317327
Entropy (-ST):   -0.075885
Local:           -1.290460
--------------------------
Free energy:   -234.163357
Extrapolated:  -234.125415

Fermi level: -0.26967

Showing only first 2 kpts
 Kpt  Band  Eigenvalues  Occupancy
  0    62     -0.53769    0.07963
  0    63     -0.07255    0.00152
  0    64     -0.02625    0.00061
  0    65      0.18523    0.00001

  1    62     -0.58657    0.15972
  1    63     -0.31407    0.11335
  1    64     -0.15493    0.01465
  1    65      0.35565    0.00000



Forces in eV/Ang:
  0 Li   -0.00007    0.00006   -0.04506
  1 Li   -0.00007    0.00005   -0.04521
  2 Li   -0.00008    0.00005   -0.04521
  3 Li   -0.00008    0.00004   -0.04506
  4 Li   -0.00643   -0.01091    0.01285
  5 Li   -0.03115    0.00991    0.13614
  6 Li    0.02151   -0.00948    0.13562
  7 Li    0.01351    0.01093    0.01347
  8 Li   -0.56073    0.46601   -0.05555
  9 Li    0.07251   -0.02453   -0.53111
 10 Li    0.26745   -0.13189    0.16368
 11 Li   -0.69481    0.29489    0.16133
 12 Li    0.71388   -0.27269   -0.04115
 13 Li   -0.26158    0.16306    0.16430
 14 Li   -0.05832    0.06046   -0.54420
 15 Li    0.57001   -0.42548    0.15221
 16 Li    0.00005   -0.00015   -0.04065
 17 Li   -0.00005   -0.00010   -0.04074
 18 Li   -0.00003   -0.00008   -0.04081
 19 Li    0.00006   -0.00014   -0.04066
 20 Li   -0.00012    0.00010   -0.04065
 21 Li   -0.00003    0.00006   -0.04084
 22 Li   -0.00004    0.00004   -0.04077
 23 Li   -0.00013    0.00010   -0.04061
 24 Li    0.00005    0.00018   -0.04739
 25 Li    0.00018   -0.00003   -0.04304
 26 Li   -0.00007   -0.00003   -0.04305
 27 Li   -0.00019   -0.00010   -0.04617
 28 Li    0.00290   -0.00190    0.00761
 29 Li   -0.00269    0.00235    0.00065
 30 Li   -0.00307    0.00101    0.00325
 31 Li    0.00225   -0.00116    0.01061
 32 Li   -0.00378    0.00214    0.00763
 33 Li    0.00210   -0.00221    0.00475
 34 Li    0.00336   -0.00062    0.00210
 35 Li   -0.00279    0.00184    0.00766
 36 Li   -0.00171   -0.00466   -0.00174
 37 Li   -0.00522    0.00118    0.01529
 38 Li    0.00099    0.00175    0.01510
 39 Li    0.00564    0.00237   -0.00631
 40 Li   -0.00872    0.01301    0.01103
 41 Li    0.00511   -0.00384    0.01728
 42 Li    0.00356   -0.00148   -0.00326
 43 Li   -0.01634    0.00136    0.01807
 44 Li    0.01769   -0.00160    0.01053
 45 Li   -0.00335    0.00258    0.00021
 46 Li   -0.00678    0.00288    0.01983
 47 Li    0.00830   -0.01362    0.00841
 48 N    -0.00026    0.00006    0.05697
 49 N    -0.00022    0.00016    0.06981
 50 N    -0.00024    0.00021    0.06980
 51 N    -0.00010    0.00026    0.05759
 52 N     0.00037    0.00133   -0.01341
 53 N     0.00133   -0.00022    0.06786
 54 N    -0.00048   -0.00042    0.06798
 55 N    -0.00168   -0.00059    0.01282
 56 N    -0.00574   -0.00733   -0.02437
 57 N     0.00254    0.00126   -0.03598
 58 N     0.00074   -0.00227   -0.03490
 59 N     0.00327    0.00955   -0.01884
 60 N     0.45315    0.76096    0.67077
 61 N     0.29608   -0.21750    0.02540
 62 N    -0.33202    0.11661    0.04275
 63 N    -0.36655   -0.63265    0.22716
 64 Li   -0.09745   -0.15703   -0.62641

System changes: positions 

Initializing position-dependent things.

Density initialized from wave functions
                                         
                                         
                                         
                                         
                                         
                                         
           Li      Li                    
              N        N  Li             
             Li   Li Li                  
              LiN   Li LiN               
                            Li           
           Li   Li Li    Li              
              N   Li   N  Li             
             Li      Li                  
              LiN   Li LiN  Li           
                                         
           Li N Li Li  N Li              
                  Li      Li             
             Li N    Li  N               
              Li    Li Li   Li           
                                         
           Li N Li Li  N Li              
                  Li      Li             
             Li N    Li  N               
              Li    Li Li   Li           
                                         
                Li       Li              
                                         
                                         
                                         
                                         

Positions:
   0 Li     1.753189    1.012426    1.530029    ( 0.0000,  0.0000,  0.0000)
   1 Li    -0.000191    4.049369    1.530029    ( 0.0000,  0.0000,  0.0000)
   2 Li     5.259899    1.012426    1.530029    ( 0.0000,  0.0000,  0.0000)
   3 Li     3.506519    4.049369    1.530029    ( 0.0000,  0.0000,  0.0000)
   4 Li     1.750915    1.015894   13.224508    ( 0.0000,  0.0000,  0.0000)
   5 Li     0.003828    4.051617   13.305180    ( 0.0000,  0.0000,  0.0000)
   6 Li     5.260695    1.008923   13.305027    ( 0.0000,  0.0000,  0.0000)
   7 Li     3.500605    4.050717   13.245717    ( 0.0000,  0.0000,  0.0000)
   8 Li     3.539493   -0.043918   15.536113    ( 0.0000,  0.0000,  0.0000)
   9 Li     1.701986    3.089409   15.050303    ( 0.0000,  0.0000,  0.0000)
  10 Li     6.975058    0.008859   15.120254    ( 0.0000,  0.0000,  0.0000)
  11 Li     5.303760    3.038238   15.668743    ( 0.0000,  0.0000,  0.0000)
  12 Li    -0.058658    2.034539   15.537491    ( 0.0000,  0.0000,  0.0000)
  13 Li    -1.728029    5.035122   15.112232    ( 0.0000,  0.0000,  0.0000)
  14 Li     3.575051    2.007110   15.038817    ( 0.0000,  0.0000,  0.0000)
  15 Li     1.731690    5.099371   15.684151    ( 0.0000,  0.0000,  0.0000)
  16 Li     3.506465    0.000182    3.465092    ( 0.0000,  0.0000,  0.0000)
  17 Li     1.753085    3.037125    3.465092    ( 0.0000,  0.0000,  0.0000)
  18 Li     7.013175    0.000182    3.465092    ( 0.0000,  0.0000,  0.0000)
  19 Li     5.259795    3.037125    3.465092    ( 0.0000,  0.0000,  0.0000)
  20 Li    -0.000262    2.024791    3.465092    ( 0.0000,  0.0000,  0.0000)
  21 Li    -1.753642    5.061734    3.465092    ( 0.0000,  0.0000,  0.0000)
  22 Li     3.506448    2.024791    3.465092    ( 0.0000,  0.0000,  0.0000)
  23 Li     1.753068    5.061734    3.465092    ( 0.0000,  0.0000,  0.0000)
  24 Li     1.753084    1.012487    5.431887    ( 0.0000,  0.0000,  0.0000)
  25 Li    -0.000296    4.049430    5.431887    ( 0.0000,  0.0000,  0.0000)
  26 Li     5.259794    1.012487    5.431887    ( 0.0000,  0.0000,  0.0000)
  27 Li     3.506414    4.049430    5.431887    ( 0.0000,  0.0000,  0.0000)
  28 Li     3.506429    0.000182    7.378027    ( 0.0000,  0.0000,  0.0000)
  29 Li     1.753049    3.037125    7.378027    ( 0.0000,  0.0000,  0.0000)
  30 Li     7.013139    0.000182    7.378027    ( 0.0000,  0.0000,  0.0000)
  31 Li     5.259759    3.037125    7.378027    ( 0.0000,  0.0000,  0.0000)
  32 Li    -0.000297    2.024791    7.378027    ( 0.0000,  0.0000,  0.0000)
  33 Li    -1.753677    5.061734    7.378027    ( 0.0000,  0.0000,  0.0000)
  34 Li     3.506413    2.024791    7.378027    ( 0.0000,  0.0000,  0.0000)
  35 Li     1.753033    5.061734    7.378027    ( 0.0000,  0.0000,  0.0000)
  36 Li     1.752905    1.013572    9.330395    ( 0.0000,  0.0000,  0.0000)
  37 Li     0.000577    4.049645    9.353295    ( 0.0000,  0.0000,  0.0000)
  38 Li     5.259503    1.011930    9.353290    ( 0.0000,  0.0000,  0.0000)
  39 Li     3.504608    4.049742    9.337302    ( 0.0000,  0.0000,  0.0000)
  40 Li     3.506984   -0.000663   11.325350    ( 0.0000,  0.0000,  0.0000)
  41 Li     1.750712    3.038978   11.265962    ( 0.0000,  0.0000,  0.0000)
  42 Li     7.011124    0.001384   11.267438    ( 0.0000,  0.0000,  0.0000)
  43 Li     5.260927    3.037544   11.342929    ( 0.0000,  0.0000,  0.0000)
  44 Li    -0.003613    2.026206   11.325299    ( 0.0000,  0.0000,  0.0000)
  45 Li    -1.753148    5.061168   11.267975    ( 0.0000,  0.0000,  0.0000)
  46 Li     3.507915    2.024750   11.266473    ( 0.0000,  0.0000,  0.0000)
  47 Li     1.750980    5.064020   11.341943    ( 0.0000,  0.0000,  0.0000)
  48 N      1.753084    1.012487    3.439048    ( 0.0000,  0.0000,  0.0000)
  49 N     -0.000296    4.049430    3.439048    ( 0.0000,  0.0000,  0.0000)
  50 N      5.259794    1.012487    3.439048    ( 0.0000,  0.0000,  0.0000)
  51 N      3.506414    4.049430    3.439048    ( 0.0000,  0.0000,  0.0000)
  52 N      1.753031    1.012517    7.360963    ( 0.0000,  0.0000,  0.0000)
  53 N     -0.000349    4.049460    7.360963    ( 0.0000,  0.0000,  0.0000)
  54 N      5.259741    1.012517    7.360963    ( 0.0000,  0.0000,  0.0000)
  55 N      3.506361    4.049460    7.360963    ( 0.0000,  0.0000,  0.0000)
  56 N      1.752073    1.013016   11.258141    ( 0.0000,  0.0000,  0.0000)
  57 N     -0.001048    4.050309   11.307088    ( 0.0000,  0.0000,  0.0000)
  58 N      5.259291    1.012869   11.307078    ( 0.0000,  0.0000,  0.0000)
  59 N      3.505497    4.050456   11.271754    ( 0.0000,  0.0000,  0.0000)
  60 N      1.749212    1.010641   15.154413    ( 0.0000,  0.0000,  0.0000)
  61 N     -0.008908    4.055914   15.285745    ( 0.0000,  0.0000,  0.0000)
  62 N      5.265297    1.010472   15.285653    ( 0.0000,  0.0000,  0.0000)
  63 N      3.506061    4.050635   15.191054    ( 0.0000,  0.0000,  0.0000)
  64 Li     2.514552    2.286494   17.146688    ( 0.0000,  0.0000,  0.0000)

Unit cell:
           periodic     x           y           z      points  spacing
  1. axis:    yes    7.013420    0.000000    0.000000    40     0.1518
  2. axis:    yes   -3.506760    6.073886    0.000000    40     0.1518
  3. axis:    yes    0.000000    0.000000   29.936001   160     0.1871

  Lengths:   7.013420   7.013520  29.936001
  Angles:   90.000000  90.000000 120.000000

Effective grid spacing dv^(1/3) = 0.1708

                     log10-error:    total        iterations:
           time      wfs    density  energy       fermi  poisson
iter:   1  10:02:37  -3.30         -234.206024    3             
iter:   2  10:03:17  -4.18  -2.45  -234.252224    3             
iter:   3  10:03:58  -5.02  -2.24  -234.206331    3             
iter:   4  10:04:37  -4.37  -2.72  -234.204696    3             
iter:   5  10:05:18  -5.19  -2.39  -234.202371    3             
iter:   6  10:05:59  -5.45  -3.03  -234.198864    3             
iter:   7  10:06:39  -5.13  -2.81  -234.201245    2             
iter:   8  10:07:20  -6.21  -3.32  -234.200581    2             
iter:   9  10:08:01  -6.42  -3.53  -234.200605    2             
iter:  10  10:08:41  -6.07  -3.60  -234.200314    2             
iter:  11  10:09:20  -6.58  -3.85  -234.200258    2             
iter:  12  10:10:01  -7.34  -4.03  -234.200292    2             

Converged after 12 iterations.

Dipole moment: (-2.756735, 1.581062, -11.359822) |e|*Ang

Energy contributions relative to reference atoms: (reference = -33644.147259)

Kinetic:       +256.325976
Potential:     -188.908668
External:        +0.000000
XC:            -300.287767
Entropy (-ST):   -0.075789
Local:           -1.291939
--------------------------
Free energy:   -234.238186
Extrapolated:  -234.200292

Fermi level: -0.27161

Showing only first 2 kpts
 Kpt  Band  Eigenvalues  Occupancy
  0    62     -0.53316    0.07957
  0    63     -0.06653    0.00130
  0    64     -0.03514    0.00070
  0    65      0.18155    0.00001

  1    62     -0.58400    0.15969
  1    63     -0.31248    0.11099
  1    64     -0.16110    0.01581
  1    65      0.35315    0.00000



Forces in eV/Ang:
  0 Li   -0.00007    0.00006   -0.04757
  1 Li   -0.00007    0.00005   -0.04776
  2 Li   -0.00008    0.00005   -0.04776
  3 Li   -0.00008    0.00004   -0.04760
  4 Li   -0.00597   -0.01003    0.04780
  5 Li   -0.03312    0.01108    0.12195
  6 Li    0.02384   -0.01130    0.12227
  7 Li    0.01291    0.01108    0.02167
  8 Li   -0.47232    0.39973   -0.03512
  9 Li    0.06858   -0.01851   -0.51570
 10 Li    0.22171   -0.10759    0.17002
 11 Li   -0.59866    0.24215    0.16579
 12 Li    0.60643   -0.22525   -0.02105
 13 Li   -0.21440    0.13631    0.17095
 14 Li   -0.05150    0.05749   -0.52805
 15 Li    0.48275   -0.37470    0.15651
 16 Li    0.00006   -0.00015   -0.04031
 17 Li   -0.00005   -0.00009   -0.04041
 18 Li   -0.00004   -0.00008   -0.04047
 19 Li    0.00007   -0.00015   -0.04031
 20 Li   -0.00013    0.00010   -0.04031
 21 Li   -0.00002    0.00005   -0.04050
 22 Li   -0.00002    0.00003   -0.04044
 23 Li   -0.00013    0.00011   -0.04026
 24 Li    0.00007    0.00021   -0.04846
 25 Li    0.00019   -0.00004   -0.04402
 26 Li   -0.00009   -0.00002   -0.04403
 27 Li   -0.00020   -0.00014   -0.04727
 28 Li    0.00312   -0.00190    0.00798
 29 Li   -0.00277    0.00243    0.00103
 30 Li   -0.00329    0.00111    0.00331
 31 Li    0.00234   -0.00134    0.01095
 32 Li   -0.00388    0.00233    0.00800
 33 Li    0.00230   -0.00234    0.00477
 34 Li    0.00345   -0.00066    0.00242
 35 Li   -0.00299    0.00182    0.00809
 36 Li   -0.00150   -0.00426   -0.00352
 37 Li   -0.00491    0.00104    0.01205
 38 Li    0.00079    0.00183    0.01193
 39 Li    0.00533    0.00201   -0.00697
 40 Li   -0.00575    0.01034    0.00934
 41 Li    0.00379   -0.00229    0.01442
 42 Li    0.00125   -0.00088   -0.00563
 43 Li   -0.01291    0.00036    0.01649
 44 Li    0.01363   -0.00026    0.00875
 45 Li   -0.00163    0.00099   -0.00233
 46 Li   -0.00479    0.00240    0.01674
 47 Li    0.00595   -0.01122    0.00730
 48 N    -0.00024    0.00009    0.06728
 49 N    -0.00025    0.00018    0.08006
 50 N    -0.00019    0.00019    0.08003
 51 N    -0.00010    0.00026    0.06797
 52 N     0.00012    0.00089   -0.00819
 53 N     0.00105   -0.00009    0.07226
 54 N    -0.00024   -0.00058    0.07243
 55 N    -0.00143   -0.00019    0.01719
 56 N    -0.00272   -0.00277   -0.01523
 57 N     0.00408   -0.00010   -0.02882
 58 N    -0.00158   -0.00037   -0.02750
 59 N     0.00087    0.00433   -0.01467
 60 N     0.39196    0.65523    0.58179
 61 N     0.21875   -0.16247    0.01526
 62 N    -0.24625    0.08551    0.03097
 63 N    -0.30709   -0.52957    0.18878
 64 Li   -0.09766   -0.15705   -0.64213

System changes: positions 

Initializing position-dependent things.

Density initialized from wave functions
                                         
                                         
                                         
                                         
                                         
                   Li                    
           Li      Li                    
              N        N  Li             
             Li   Li Li                  
              Li N  Li LiN               
                            Li           
           Li   Li Li    Li              
              N   Li   N  Li             
             Li      Li                  
              LiN   Li LiN  Li           
                                         
           Li N Li Li  N Li              
                  Li      Li             
             Li N    Li  N               
              Li    Li Li   Li           
           Li      Li                    
              N Li     N Li              
                  Li      Li             
             Li N    Li  N               
              Li    Li Li   Li           
                                         
                Li       Li              
                                         
                                         
                                         
                                         

Positions:
   0 Li     1.753189    1.012426    1.530029    ( 0.0000,  0.0000,  0.0000)
   1 Li    -0.000191    4.049369    1.530029    ( 0.0000,  0.0000,  0.0000)
   2 Li     5.259899    1.012426    1.530029    ( 0.0000,  0.0000,  0.0000)
   3 Li     3.506519    4.049369    1.530029    ( 0.0000,  0.0000,  0.0000)
   4 Li     1.750163    1.014700   13.230745    ( 0.0000,  0.0000,  0.0000)
   5 Li     0.000028    4.052919   13.319390    ( 0.0000,  0.0000,  0.0000)
   6 Li     5.263482    1.007534   13.319270    ( 0.0000,  0.0000,  0.0000)
   7 Li     3.502060    4.052051   13.247376    ( 0.0000,  0.0000,  0.0000)
   8 Li     3.483710    0.003096   15.538001    ( 0.0000,  0.0000,  0.0000)
   9 Li     1.709150    3.085858   14.990371    ( 0.0000,  0.0000,  0.0000)
  10 Li     7.001428   -0.002990   15.140061    ( 0.0000,  0.0000,  0.0000)
  11 Li     5.234429    3.066240   15.681796    ( 0.0000,  0.0000,  0.0000)
  12 Li     0.012710    2.007889   15.540998    ( 0.0000,  0.0000,  0.0000)
  13 Li    -1.752681    5.051825   15.132043    ( 0.0000,  0.0000,  0.0000)
  14 Li     3.568231    2.012356   14.977303    ( 0.0000,  0.0000,  0.0000)
  15 Li     1.787557    5.055962   15.696365    ( 0.0000,  0.0000,  0.0000)
  16 Li     3.506465    0.000182    3.465092    ( 0.0000,  0.0000,  0.0000)
  17 Li     1.753085    3.037125    3.465092    ( 0.0000,  0.0000,  0.0000)
  18 Li     7.013175    0.000182    3.465092    ( 0.0000,  0.0000,  0.0000)
  19 Li     5.259795    3.037125    3.465092    ( 0.0000,  0.0000,  0.0000)
  20 Li    -0.000262    2.024791    3.465092    ( 0.0000,  0.0000,  0.0000)
  21 Li    -1.753642    5.061734    3.465092    ( 0.0000,  0.0000,  0.0000)
  22 Li     3.506448    2.024791    3.465092    ( 0.0000,  0.0000,  0.0000)
  23 Li     1.753068    5.061734    3.465092    ( 0.0000,  0.0000,  0.0000)
  24 Li     1.753084    1.012487    5.431887    ( 0.0000,  0.0000,  0.0000)
  25 Li    -0.000296    4.049430    5.431887    ( 0.0000,  0.0000,  0.0000)
  26 Li     5.259794    1.012487    5.431887    ( 0.0000,  0.0000,  0.0000)
  27 Li     3.506414    4.049430    5.431887    ( 0.0000,  0.0000,  0.0000)
  28 Li     3.506429    0.000182    7.378027    ( 0.0000,  0.0000,  0.0000)
  29 Li     1.753049    3.037125    7.378027    ( 0.0000,  0.0000,  0.0000)
  30 Li     7.013139    0.000182    7.378027    ( 0.0000,  0.0000,  0.0000)
  31 Li     5.259759    3.037125    7.378027    ( 0.0000,  0.0000,  0.0000)
  32 Li    -0.000297    2.024791    7.378027    ( 0.0000,  0.0000,  0.0000)
  33 Li    -1.753677    5.061734    7.378027    ( 0.0000,  0.0000,  0.0000)
  34 Li     3.506413    2.024791    7.378027    ( 0.0000,  0.0000,  0.0000)
  35 Li     1.753033    5.061734    7.378027    ( 0.0000,  0.0000,  0.0000)
  36 Li     1.752722    1.013071    9.330227    ( 0.0000,  0.0000,  0.0000)
  37 Li     0.000015    4.049771    9.354703    ( 0.0000,  0.0000,  0.0000)
  38 Li     5.259603    1.012129    9.354685    ( 0.0000,  0.0000,  0.0000)
  39 Li     3.505214    4.049991    9.336277    ( 0.0000,  0.0000,  0.0000)
  40 Li     3.506277    0.000562   11.327233    ( 0.0000,  0.0000,  0.0000)
  41 Li     1.751135    3.038667   11.267651    ( 0.0000,  0.0000,  0.0000)
  42 Li     7.011294    0.001312   11.266789    ( 0.0000,  0.0000,  0.0000)
  43 Li     5.259427    3.037575   11.344077    ( 0.0000,  0.0000,  0.0000)
  44 Li    -0.002003    2.026162   11.327115    ( 0.0000,  0.0000,  0.0000)
  45 Li    -1.753327    5.061317   11.267716    ( 0.0000,  0.0000,  0.0000)
  46 Li     3.507329    2.024996   11.268439    ( 0.0000,  0.0000,  0.0000)
  47 Li     1.751654    5.062716   11.342009    ( 0.0000,  0.0000,  0.0000)
  48 N      1.753084    1.012487    3.439048    ( 0.0000,  0.0000,  0.0000)
  49 N     -0.000296    4.049430    3.439048    ( 0.0000,  0.0000,  0.0000)
  50 N      5.259794    1.012487    3.439048    ( 0.0000,  0.0000,  0.0000)
  51 N      3.506414    4.049430    3.439048    ( 0.0000,  0.0000,  0.0000)
  52 N      1.753031    1.012517    7.360963    ( 0.0000,  0.0000,  0.0000)
  53 N     -0.000349    4.049460    7.360963    ( 0.0000,  0.0000,  0.0000)
  54 N      5.259741    1.012517    7.360963    ( 0.0000,  0.0000,  0.0000)
  55 N      3.506361    4.049460    7.360963    ( 0.0000,  0.0000,  0.0000)
  56 N      1.751737    1.012672   11.256857    ( 0.0000,  0.0000,  0.0000)
  57 N     -0.000584    4.050304   11.303719    ( 0.0000,  0.0000,  0.0000)
  58 N      5.259115    1.012812   11.303861    ( 0.0000,  0.0000,  0.0000)
  59 N      3.505601    4.050984   11.269548    ( 0.0000,  0.0000,  0.0000)
  60 N      1.795020    1.087268   15.223813    ( 0.0000,  0.0000,  0.0000)
  61 N      0.016779    4.036805   15.287540    ( 0.0000,  0.0000,  0.0000)
  62 N      5.236315    1.020513   15.289280    ( 0.0000,  0.0000,  0.0000)
  63 N      3.470224    3.988826   15.211653    ( 0.0000,  0.0000,  0.0000)
  64 Li     2.514551    2.287254   17.072248    ( 0.0000,  0.0000,  0.0000)

Unit cell:
           periodic     x           y           z      points  spacing
  1. axis:    yes    7.013420    0.000000    0.000000    40     0.1518
  2. axis:    yes   -3.506760    6.073886    0.000000    40     0.1518
  3. axis:    yes    0.000000    0.000000   29.936001   160     0.1871

  Lengths:   7.013420   7.013520  29.936001
  Angles:   90.000000  90.000000 120.000000

Effective grid spacing dv^(1/3) = 0.1708

                     log10-error:    total        iterations:
           time      wfs    density  energy       fermi  poisson
iter:   1  10:12:10  -1.59         -234.872799    3             
iter:   2  10:12:51  -2.68  -1.72  -235.139406    4             
iter:   3  10:13:31  -3.59  -1.65  -234.661955    3             
iter:   4  10:14:11  -3.08  -1.92  -234.808142    4             
iter:   5  10:14:51  -3.57  -1.71  -234.628402    5             
iter:   6  10:15:32  -3.13  -1.98  -234.611313    3             
iter:   7  10:16:12  -3.30  -2.04  -234.519722    4             
iter:   8  10:16:52  -4.06  -2.29  -234.487318    3             
iter:   9  10:17:33  -4.83  -2.40  -234.487003    2             
iter:  10  10:18:13  -4.06  -2.35  -234.525260    4             
iter:  11  10:18:54  -3.99  -2.29  -234.484142    3             
iter:  12  10:19:34  -5.05  -2.85  -234.484970    2             
iter:  13  10:20:14  -5.31  -2.80  -234.482057    2             
iter:  14  10:20:54  -4.96  -2.99  -234.482544    3             
iter:  15  10:21:35  -5.15  -2.86  -234.481175    3             
iter:  16  10:22:17  -5.75  -2.56  -234.481619    2             
iter:  17  10:22:59  -4.51  -2.99  -234.480011    3             
iter:  18  10:23:41  -5.60  -3.22  -234.480391    2             
iter:  19  10:24:21  -6.20  -3.38  -234.480660    2             
iter:  20  10:25:01  -6.19  -3.54  -234.480798    2             
iter:  21  10:25:42  -6.61  -3.68  -234.480526    2             
iter:  22  10:26:22  -6.98  -3.79  -234.480883    2             
iter:  23  10:27:02  -7.43  -3.89  -234.480689    2             
iter:  24  10:27:44  -7.75  -4.10  -234.480651    2             

Converged after 24 iterations.

Dipole moment: (-2.541688, 1.444384, -11.375612) |e|*Ang

Energy contributions relative to reference atoms: (reference = -33644.147259)

Kinetic:       +255.434298
Potential:     -188.353453
External:        +0.000000
XC:            -300.234749
Entropy (-ST):   -0.076160
Local:           -1.288666
--------------------------
Free energy:   -234.518731
Extrapolated:  -234.480651

Fermi level: -0.27865

Showing only first 2 kpts
 Kpt  Band  Eigenvalues  Occupancy
  0    62     -0.51241    0.07926
  0    63     -0.09946    0.00216
  0    64     -0.01566    0.00041
  0    65      0.15854    0.00001

  1    62     -0.57115    0.15954
  1    63     -0.30689    0.10201
  1    64     -0.18774    0.02235
  1    65      0.34004    0.00000



Forces in eV/Ang:
  0 Li   -0.00007    0.00006   -0.04839
  1 Li   -0.00007    0.00005   -0.04852
  2 Li   -0.00008    0.00005   -0.04852
  3 Li   -0.00008    0.00004   -0.04839
  4 Li    0.00008    0.00077    0.18951
  5 Li   -0.05430    0.02396    0.01608
  6 Li    0.04843   -0.02845    0.02164
  7 Li    0.01050    0.01655    0.05020
  8 Li    0.11751    0.01592    0.09739
  9 Li   -0.00225    0.05914   -0.40239
 10 Li   -0.09046    0.04489    0.18587
 11 Li   -0.01614   -0.11018    0.19371
 12 Li   -0.05036    0.11677    0.10930
 13 Li    0.09170   -0.05067    0.18803
 14 Li    0.05034    0.01828   -0.40796
 15 Li   -0.07604   -0.07881    0.18188
 16 Li    0.00015   -0.00017   -0.04159
 17 Li   -0.00011   -0.00004   -0.04182
 18 Li   -0.00013   -0.00004   -0.04183
 19 Li    0.00012   -0.00021   -0.04159
 20 Li   -0.00019    0.00017   -0.04159
 21 Li    0.00006   -0.00001   -0.04184
 22 Li    0.00004    0.00001   -0.04184
 23 Li   -0.00021    0.00012   -0.04155
 24 Li   -0.00001    0.00004   -0.05209
 25 Li    0.00007    0.00001   -0.04697
 26 Li   -0.00000   -0.00005   -0.04699
 27 Li   -0.00008    0.00001   -0.05099
 28 Li    0.00444   -0.00282    0.00711
 29 Li   -0.00411    0.00336   -0.00038
 30 Li   -0.00462    0.00173    0.00096
 31 Li    0.00370   -0.00195    0.00971
 32 Li   -0.00520    0.00301    0.00717
 33 Li    0.00348   -0.00305    0.00196
 34 Li    0.00474   -0.00136    0.00050
 35 Li   -0.00417    0.00260    0.00775
 36 Li   -0.00074   -0.00267   -0.01320
 37 Li   -0.00336    0.00039   -0.01069
 38 Li   -0.00000    0.00201   -0.01025
 39 Li    0.00388    0.00076   -0.01228
 40 Li    0.01289   -0.00671    0.01022
 41 Li   -0.00517    0.00704    0.00956
 42 Li   -0.01223    0.00324   -0.00955
 43 Li    0.00965   -0.00620    0.01661
 44 Li   -0.01211    0.00800    0.00886
 45 Li    0.00900   -0.00795   -0.00790
 46 Li    0.00768   -0.00141    0.01012
 47 Li   -0.00958    0.00464    0.01143
 48 N    -0.00004    0.00041    0.07705
 49 N    -0.00022    0.00019    0.08698
 50 N    -0.00018    0.00022    0.08714
 51 N    -0.00029   -0.00004    0.07590
 52 N     0.00020    0.00079    0.00046
 53 N     0.00073   -0.00011    0.07455
 54 N    -0.00032   -0.00030    0.07483
 55 N    -0.00111   -0.00036    0.01984
 56 N    -0.00525   -0.01006    0.06634
 57 N    -0.00796    0.00281    0.03500
 58 N     0.00568   -0.00085    0.03685
 59 N     0.00707    0.00775    0.03362
 60 N    -0.05032   -0.10152    0.16094
 61 N    -0.22275    0.14061   -0.02666
 62 N     0.23260   -0.10629   -0.02284
 63 N     0.10143    0.17900    0.03198
 64 Li   -0.08911   -0.14076   -0.72076

System changes: positions 

Initializing position-dependent things.

Density initialized from wave functions
                                         
                                         
                                         
                                         
                                         
                   Li                    
           Li      Li                    
              N        N  Li             
             Li   Li Li                  
              Li N  Li LiN  Li           
                                         
           Li   Li Li    Li              
              N   Li   N  Li             
             Li      Li                  
              LiN   Li LiN  Li           
                                         
           Li N Li Li  N Li              
                  Li      Li             
             Li N    Li  N               
              Li    Li Li   Li           
           Li      Li                    
              N Li     N Li              
             Li   Li Li   Li             
                N        N               
              Li    Li Li   Li           
                                         
                Li       Li              
                                         
                                         
                                         
                                         

Positions:
   0 Li     1.753189    1.012426    1.530029    ( 0.0000,  0.0000,  0.0000)
   1 Li    -0.000191    4.049369    1.530029    ( 0.0000,  0.0000,  0.0000)
   2 Li     5.259899    1.012426    1.530029    ( 0.0000,  0.0000,  0.0000)
   3 Li     3.506519    4.049369    1.530029    ( 0.0000,  0.0000,  0.0000)
   4 Li     1.750098    1.014612   13.234007    ( 0.0000,  0.0000,  0.0000)
   5 Li    -0.001066    4.053378   13.320775    ( 0.0000,  0.0000,  0.0000)
   6 Li     5.264417    1.007002   13.320738    ( 0.0000,  0.0000,  0.0000)
   7 Li     3.502326    4.052403   13.248154    ( 0.0000,  0.0000,  0.0000)
   8 Li     3.480785    0.007213   15.540235    ( 0.0000,  0.0000,  0.0000)
   9 Li     1.709587    3.086291   14.979674    ( 0.0000,  0.0000,  0.0000)
  10 Li     7.002312   -0.003248   15.144353    ( 0.0000,  0.0000,  0.0000)
  11 Li     5.228551    3.066890   15.684963    ( 0.0000,  0.0000,  0.0000)
  12 Li     0.017882    2.007369   15.543535    ( 0.0000,  0.0000,  0.0000)
  13 Li    -1.753337    5.052521   15.136357    ( 0.0000,  0.0000,  0.0000)
  14 Li     3.568343    2.012878   14.966382    ( 0.0000,  0.0000,  0.0000)
  15 Li     1.790973    5.051275   15.699320    ( 0.0000,  0.0000,  0.0000)
  16 Li     3.506465    0.000182    3.465092    ( 0.0000,  0.0000,  0.0000)
  17 Li     1.753085    3.037125    3.465092    ( 0.0000,  0.0000,  0.0000)
  18 Li     7.013175    0.000182    3.465092    ( 0.0000,  0.0000,  0.0000)
  19 Li     5.259795    3.037125    3.465092    ( 0.0000,  0.0000,  0.0000)
  20 Li    -0.000262    2.024791    3.465092    ( 0.0000,  0.0000,  0.0000)
  21 Li    -1.753642    5.061734    3.465092    ( 0.0000,  0.0000,  0.0000)
  22 Li     3.506448    2.024791    3.465092    ( 0.0000,  0.0000,  0.0000)
  23 Li     1.753068    5.061734    3.465092    ( 0.0000,  0.0000,  0.0000)
  24 Li     1.753084    1.012487    5.431887    ( 0.0000,  0.0000,  0.0000)
  25 Li    -0.000296    4.049430    5.431887    ( 0.0000,  0.0000,  0.0000)
  26 Li     5.259794    1.012487    5.431887    ( 0.0000,  0.0000,  0.0000)
  27 Li     3.506414    4.049430    5.431887    ( 0.0000,  0.0000,  0.0000)
  28 Li     3.506429    0.000182    7.378027    ( 0.0000,  0.0000,  0.0000)
  29 Li     1.753049    3.037125    7.378027    ( 0.0000,  0.0000,  0.0000)
  30 Li     7.013139    0.000182    7.378027    ( 0.0000,  0.0000,  0.0000)
  31 Li     5.259759    3.037125    7.378027    ( 0.0000,  0.0000,  0.0000)
  32 Li    -0.000297    2.024791    7.378027    ( 0.0000,  0.0000,  0.0000)
  33 Li    -1.753677    5.061734    7.378027    ( 0.0000,  0.0000,  0.0000)
  34 Li     3.506413    2.024791    7.378027    ( 0.0000,  0.0000,  0.0000)
  35 Li     1.753033    5.061734    7.378027    ( 0.0000,  0.0000,  0.0000)
  36 Li     1.752696    1.012991    9.330049    ( 0.0000,  0.0000,  0.0000)
  37 Li    -0.000079    4.049787    9.354664    ( 0.0000,  0.0000,  0.0000)
  38 Li     5.259612    1.012173    9.354651    ( 0.0000,  0.0000,  0.0000)
  39 Li     3.505319    4.050024    9.335992    ( 0.0000,  0.0000,  0.0000)
  40 Li     3.506403    0.000566   11.327616    ( 0.0000,  0.0000,  0.0000)
  41 Li     1.751093    3.038740   11.267935    ( 0.0000,  0.0000,  0.0000)
  42 Li     7.011134    0.001355   11.266605    ( 0.0000,  0.0000,  0.0000)
  43 Li     5.259444    3.037488   11.344344    ( 0.0000,  0.0000,  0.0000)
  44 Li    -0.002045    2.026273   11.327473    ( 0.0000,  0.0000,  0.0000)
  45 Li    -1.753212    5.061217   11.267588    ( 0.0000,  0.0000,  0.0000)
  46 Li     3.507390    2.024994   11.268755    ( 0.0000,  0.0000,  0.0000)
  47 Li     1.751569    5.062677   11.342111    ( 0.0000,  0.0000,  0.0000)
  48 N      1.753084    1.012487    3.439048    ( 0.0000,  0.0000,  0.0000)
  49 N     -0.000296    4.049430    3.439048    ( 0.0000,  0.0000,  0.0000)
  50 N      5.259794    1.012487    3.439048    ( 0.0000,  0.0000,  0.0000)
  51 N      3.506414    4.049430    3.439048    ( 0.0000,  0.0000,  0.0000)
  52 N      1.753031    1.012517    7.360963    ( 0.0000,  0.0000,  0.0000)
  53 N     -0.000349    4.049460    7.360963    ( 0.0000,  0.0000,  0.0000)
  54 N      5.259741    1.012517    7.360963    ( 0.0000,  0.0000,  0.0000)
  55 N      3.506361    4.049460    7.360963    ( 0.0000,  0.0000,  0.0000)
  56 N      1.751621    1.012478   11.257773    ( 0.0000,  0.0000,  0.0000)
  57 N     -0.000673    4.050350   11.303956    ( 0.0000,  0.0000,  0.0000)
  58 N      5.259195    1.012787   11.304137    ( 0.0000,  0.0000,  0.0000)
  59 N      3.505723    4.051160   11.269811    ( 0.0000,  0.0000,  0.0000)
  60 N      1.797978    1.091974   15.231831    ( 0.0000,  0.0000,  0.0000)
  61 N      0.015722    4.037273   15.287313    ( 0.0000,  0.0000,  0.0000)
  62 N      5.237272    1.019840   15.289260    ( 0.0000,  0.0000,  0.0000)
  63 N      3.468734    3.986307   15.213914    ( 0.0000,  0.0000,  0.0000)
  64 Li     2.514452    2.287278   17.055805    ( 0.0000,  0.0000,  0.0000)

Unit cell:
           periodic     x           y           z      points  spacing
  1. axis:    yes    7.013420    0.000000    0.000000    40     0.1518
  2. axis:    yes   -3.506760    6.073886    0.000000    40     0.1518
  3. axis:    yes    0.000000    0.000000   29.936001   160     0.1871

  Lengths:   7.013420   7.013520  29.936001
  Angles:   90.000000  90.000000 120.000000

Effective grid spacing dv^(1/3) = 0.1708

                     log10-error:    total        iterations:
           time      wfs    density  energy       fermi  poisson
iter:   1  10:28:56  -3.53         -234.508339    2             
iter:   2  10:29:37  -4.70  -2.86  -234.504377    3             
iter:   3  10:30:17  -5.41  -2.72  -234.505818    2             
iter:   4  10:30:57  -4.90  -3.07  -234.505522    2             
iter:   5  10:31:37  -5.93  -3.23  -234.505267    2             
iter:   6  10:32:18  -5.39  -3.31  -234.504571    2             
iter:   7  10:32:59  -5.84  -3.61  -234.504714    2             
iter:   8  10:33:39  -6.47  -3.64  -234.504337    2             
iter:   9  10:34:20  -7.11  -3.58  -234.504662    2             
iter:  10  10:35:01  -6.12  -3.70  -234.504543    2             
iter:  11  10:35:42  -7.02  -4.04  -234.504530    2             

Converged after 11 iterations.

Dipole moment: (-2.475454, 1.411821, -11.383875) |e|*Ang

Energy contributions relative to reference atoms: (reference = -33644.147259)

Kinetic:       +255.418941
Potential:     -188.353343
External:        +0.000000
XC:            -300.241860
Entropy (-ST):   -0.076061
Local:           -1.290238
--------------------------
Free energy:   -234.542560
Extrapolated:  -234.504530

Fermi level: -0.28203

Showing only first 2 kpts
 Kpt  Band  Eigenvalues  Occupancy
  0    62     -0.51609    0.07927
  0    63     -0.10711    0.00235
  0    64     -0.01430    0.00038
  0    65      0.15249    0.00001

  1    62     -0.57539    0.15955
  1    63     -0.31053    0.10220
  1    64     -0.19110    0.02233
  1    65      0.33543    0.00000



Forces in eV/Ang:
  0 Li   -0.00007    0.00006   -0.04838
  1 Li   -0.00007    0.00005   -0.04848
  2 Li   -0.00008    0.00005   -0.04848
  3 Li   -0.00008    0.00004   -0.04837
  4 Li   -0.00561   -0.00879    0.18296
  5 Li   -0.06269    0.02887    0.00435
  6 Li    0.05735   -0.03374    0.00999
  7 Li    0.01695    0.02847    0.04742
  8 Li    0.15417   -0.00674    0.10763
  9 Li   -0.02156    0.07157   -0.38156
 10 Li   -0.09855    0.04939    0.18589
 11 Li    0.02022   -0.12775    0.19710
 12 Li   -0.08833    0.13730    0.11908
 13 Li    0.09968   -0.05599    0.18814
 14 Li    0.07142    0.00839   -0.38603
 15 Li   -0.10872   -0.05686    0.18549
 16 Li    0.00015   -0.00019   -0.04191
 17 Li   -0.00011   -0.00004   -0.04213
 18 Li   -0.00013   -0.00005   -0.04215
 19 Li    0.00013   -0.00020   -0.04190
 20 Li   -0.00020    0.00017   -0.04192
 21 Li    0.00006   -0.00001   -0.04216
 22 Li    0.00005    0.00001   -0.04215
 23 Li   -0.00021    0.00013   -0.04187
 24 Li    0.00003    0.00011   -0.05256
 25 Li    0.00011   -0.00002   -0.04736
 26 Li   -0.00005   -0.00002   -0.04738
 27 Li   -0.00012   -0.00006   -0.05148
 28 Li    0.00466   -0.00274    0.00694
 29 Li   -0.00410    0.00341   -0.00034
 30 Li   -0.00485    0.00180    0.00052
 31 Li    0.00369   -0.00215    0.00950
 32 Li   -0.00521    0.00324    0.00700
 33 Li    0.00365   -0.00320    0.00145
 34 Li    0.00475   -0.00133    0.00045
 35 Li   -0.00433    0.00248    0.00770
 36 Li   -0.00032   -0.00189   -0.00745
 37 Li   -0.00278    0.00011   -0.00915
 38 Li   -0.00046    0.00221   -0.00863
 39 Li    0.00334    0.00002   -0.00862
 40 Li    0.01188   -0.00627    0.01107
 41 Li   -0.00496    0.00613    0.00880
 42 Li   -0.01078    0.00330   -0.00770
 43 Li    0.00951   -0.00601    0.01608
 44 Li   -0.01131    0.00730    0.00964
 45 Li    0.00828   -0.00672   -0.00628
 46 Li    0.00689   -0.00166    0.00916
 47 Li   -0.00935    0.00470    0.01131
 48 N    -0.00007    0.00037    0.08265
 49 N    -0.00022    0.00019    0.09130
 50 N    -0.00018    0.00021    0.09150
 51 N    -0.00029   -0.00003    0.08030
 52 N    -0.00012    0.00024    0.00646
 53 N     0.00038    0.00008    0.07963
 54 N    -0.00000   -0.00044    0.07995
 55 N    -0.00074    0.00020    0.02385
 56 N    -0.00079   -0.00269    0.06718
 57 N    -0.00408    0.00062    0.04229
 58 N     0.00165    0.00117    0.04402
 59 N     0.00260    0.00036    0.03232
 60 N    -0.06898   -0.13050    0.10727
 61 N    -0.21530    0.13838   -0.02272
 62 N     0.22708   -0.09992   -0.02055
 63 N     0.11052    0.19479    0.00428
 64 Li   -0.08713   -0.13724   -0.70587

System changes: positions 

Initializing position-dependent things.

Density initialized from wave functions
                                         
                                         
                                         
                                         
                                         
                   Li                    
           Li N    Li                    
             Li       N   Li             
                 NLi Li  N               
              Li    Li Li   Li           
                                         
           Li N Li Li  N Li              
                  Li      Li             
             Li N    Li  N               
              Li    Li Li   Li           
                                         
           Li N Li Li  N Li              
                  Li      Li             
             Li N    Li  N               
              Li    Li Li   Li           
           Li      Li                    
              N Li     N Li              
             Li   Li Li   Li             
                N        N               
              Li    Li Li   Li           
                                         
                Li       Li              
                                         
                                         
                                         
                                         

Positions:
   0 Li     1.753189    1.012426    1.530029    ( 0.0000,  0.0000,  0.0000)
   1 Li    -0.000191    4.049369    1.530029    ( 0.0000,  0.0000,  0.0000)
   2 Li     5.259899    1.012426    1.530029    ( 0.0000,  0.0000,  0.0000)
   3 Li     3.506519    4.049369    1.530029    ( 0.0000,  0.0000,  0.0000)
   4 Li     1.748938    1.012890   13.268247    ( 0.0000,  0.0000,  0.0000)
   5 Li    -0.013229    4.058751   13.330250    ( 0.0000,  0.0000,  0.0000)
   6 Li     5.275185    1.000791   13.331157    ( 0.0000,  0.0000,  0.0000)
   7 Li     3.505617    4.057355   13.256250    ( 0.0000,  0.0000,  0.0000)
   8 Li     3.471204    0.035144   15.566168    ( 0.0000,  0.0000,  0.0000)
   9 Li     1.709808    3.093939   14.880843    ( 0.0000,  0.0000,  0.0000)
  10 Li     7.002208   -0.001550   15.186482    ( 0.0000,  0.0000,  0.0000)
  11 Li     5.189947    3.062458   15.717145    ( 0.0000,  0.0000,  0.0000)
  12 Li     0.047550    2.013174   15.572317    ( 0.0000,  0.0000,  0.0000)
  13 Li    -1.751274    5.053974   15.178752    ( 0.0000,  0.0000,  0.0000)
  14 Li     3.574485    2.015852   14.865672    ( 0.0000,  0.0000,  0.0000)
  15 Li     1.806599    5.015498   15.729395    ( 0.0000,  0.0000,  0.0000)
  16 Li     3.506465    0.000182    3.465092    ( 0.0000,  0.0000,  0.0000)
  17 Li     1.753085    3.037125    3.465092    ( 0.0000,  0.0000,  0.0000)
  18 Li     7.013175    0.000182    3.465092    ( 0.0000,  0.0000,  0.0000)
  19 Li     5.259795    3.037125    3.465092    ( 0.0000,  0.0000,  0.0000)
  20 Li    -0.000262    2.024791    3.465092    ( 0.0000,  0.0000,  0.0000)
  21 Li    -1.753642    5.061734    3.465092    ( 0.0000,  0.0000,  0.0000)
  22 Li     3.506448    2.024791    3.465092    ( 0.0000,  0.0000,  0.0000)
  23 Li     1.753068    5.061734    3.465092    ( 0.0000,  0.0000,  0.0000)
  24 Li     1.753084    1.012487    5.431887    ( 0.0000,  0.0000,  0.0000)
  25 Li    -0.000296    4.049430    5.431887    ( 0.0000,  0.0000,  0.0000)
  26 Li     5.259794    1.012487    5.431887    ( 0.0000,  0.0000,  0.0000)
  27 Li     3.506414    4.049430    5.431887    ( 0.0000,  0.0000,  0.0000)
  28 Li     3.506429    0.000182    7.378027    ( 0.0000,  0.0000,  0.0000)
  29 Li     1.753049    3.037125    7.378027    ( 0.0000,  0.0000,  0.0000)
  30 Li     7.013139    0.000182    7.378027    ( 0.0000,  0.0000,  0.0000)
  31 Li     5.259759    3.037125    7.378027    ( 0.0000,  0.0000,  0.0000)
  32 Li    -0.000297    2.024791    7.378027    ( 0.0000,  0.0000,  0.0000)
  33 Li    -1.753677    5.061734    7.378027    ( 0.0000,  0.0000,  0.0000)
  34 Li     3.506413    2.024791    7.378027    ( 0.0000,  0.0000,  0.0000)
  35 Li     1.753033    5.061734    7.378027    ( 0.0000,  0.0000,  0.0000)
  36 Li     1.752507    1.012340    9.328745    ( 0.0000,  0.0000,  0.0000)
  37 Li    -0.000890    4.049896    9.353902    ( 0.0000,  0.0000,  0.0000)
  38 Li     5.259623    1.012635    9.353963    ( 0.0000,  0.0000,  0.0000)
  39 Li     3.506242    4.050222    9.333533    ( 0.0000,  0.0000,  0.0000)
  40 Li     3.507969    0.000238   11.331403    ( 0.0000,  0.0000,  0.0000)
  41 Li     1.750493    3.039577   11.270501    ( 0.0000,  0.0000,  0.0000)
  42 Li     7.009410    0.001875   11.264937    ( 0.0000,  0.0000,  0.0000)
  43 Li     5.260148    3.036499   11.346955    ( 0.0000,  0.0000,  0.0000)
  44 Li    -0.002995    2.027474   11.330991    ( 0.0000,  0.0000,  0.0000)
  45 Li    -1.751914    5.060166   11.266404    ( 0.0000,  0.0000,  0.0000)
  46 Li     3.508199    2.024848   11.271562    ( 0.0000,  0.0000,  0.0000)
  47 Li     1.750390    5.062693   11.343263    ( 0.0000,  0.0000,  0.0000)
  48 N      1.753084    1.012487    3.439048    ( 0.0000,  0.0000,  0.0000)
  49 N     -0.000296    4.049430    3.439048    ( 0.0000,  0.0000,  0.0000)
  50 N      5.259794    1.012487    3.439048    ( 0.0000,  0.0000,  0.0000)
  51 N      3.506414    4.049430    3.439048    ( 0.0000,  0.0000,  0.0000)
  52 N      1.753031    1.012517    7.360963    ( 0.0000,  0.0000,  0.0000)
  53 N     -0.000349    4.049460    7.360963    ( 0.0000,  0.0000,  0.0000)
  54 N      5.259741    1.012517    7.360963    ( 0.0000,  0.0000,  0.0000)
  55 N      3.506361    4.049460    7.360963    ( 0.0000,  0.0000,  0.0000)
  56 N      1.750939    1.011256   11.268759    ( 0.0000,  0.0000,  0.0000)
  57 N     -0.001395    4.050623   11.308713    ( 0.0000,  0.0000,  0.0000)
  58 N      5.259688    1.012760   11.309270    ( 0.0000,  0.0000,  0.0000)
  59 N      3.506550    4.052111   11.273471    ( 0.0000,  0.0000,  0.0000)
  60 N      1.813526    1.115470   15.292650    ( 0.0000,  0.0000,  0.0000)
  61 N     -0.004483    4.049052   15.284550    ( 0.0000,  0.0000,  0.0000)
  62 N      5.257709    1.009374   15.288021    ( 0.0000,  0.0000,  0.0000)
  63 N      3.465271    3.980940   15.229460    ( 0.0000,  0.0000,  0.0000)
  64 Li     2.513263    2.287216   16.895680    ( 0.0000,  0.0000,  0.0000)

Unit cell:
           periodic     x           y           z      points  spacing
  1. axis:    yes    7.013420    0.000000    0.000000    40     0.1518
  2. axis:    yes   -3.506760    6.073886    0.000000    40     0.1518
  3. axis:    yes    0.000000    0.000000   29.936001   160     0.1871

  Lengths:   7.013420   7.013520  29.936001
  Angles:   90.000000  90.000000 120.000000

Effective grid spacing dv^(1/3) = 0.1708

                     log10-error:    total        iterations:
           time      wfs    density  energy       fermi  poisson
iter:   1  10:37:51  -1.67         -234.810145    3             
iter:   2  10:38:31  -2.69  -1.90  -234.951328    5             
iter:   3  10:39:11  -3.61  -1.82  -234.762496    4             
iter:   4  10:39:51  -3.49  -2.09  -234.773283    4             
iter:   5  10:40:33  -3.61  -1.94  -234.766190    4             
iter:   6  10:41:13  -3.97  -2.11  -234.722369    3             
iter:   7  10:41:53  -3.67  -2.26  -234.696288    3             
iter:   8  10:42:34  -4.24  -2.26  -234.753747    3             
iter:   9  10:43:14  -4.75  -2.21  -234.686892    3             
iter:  10  10:43:55  -5.01  -2.85  -234.684949    3             
iter:  11  10:44:35  -4.33  -2.50  -234.692509    3             
iter:  12  10:45:16  -5.90  -2.67  -234.685668    3             
iter:  13  10:45:56  -5.88  -3.03  -234.684688    2             
iter:  14  10:46:36  -6.53  -3.20  -234.683533    2             
iter:  15  10:47:17  -5.54  -3.46  -234.684318    2             
iter:  16  10:47:58  -5.59  -3.31  -234.683587    2             
iter:  17  10:48:40  -6.60  -3.78  -234.683811    2             
iter:  18  10:49:20  -6.68  -3.76  -234.683541    2             
iter:  19  10:50:01  -7.69  -4.13  -234.683600    2             

Converged after 19 iterations.

Dipole moment: (-1.859482, 1.125429, -11.421535) |e|*Ang

Energy contributions relative to reference atoms: (reference = -33644.147259)

Kinetic:       +255.278009
Potential:     -188.316179
External:        +0.000000
XC:            -300.318174
Entropy (-ST):   -0.074057
Local:           -1.290227
--------------------------
Free energy:   -234.720628
Extrapolated:  -234.683600

Fermi level: -0.31036

Showing only first 2 kpts
 Kpt  Band  Eigenvalues  Occupancy
  0    62     -0.56098    0.07947
  0    63     -0.16252    0.00395
  0    64     -0.01669    0.00022
  0    65      0.10099    0.00002

  1    62     -0.62441    0.15970
  1    63     -0.34582    0.10724
  1    64     -0.21698    0.02141
  1    65      0.29721    0.00000



Forces in eV/Ang:
  0 Li   -0.00007    0.00006   -0.05332
  1 Li   -0.00007    0.00005   -0.05333
  2 Li   -0.00008    0.00005   -0.05333
  3 Li   -0.00008    0.00004   -0.05323
  4 Li   -0.07077   -0.11873    0.07047
  5 Li   -0.14319    0.07597   -0.07826
  6 Li    0.14206   -0.08439   -0.07410
  7 Li    0.08512    0.15115   -0.00094
  8 Li    0.34509   -0.10105    0.13502
  9 Li   -0.16694    0.15780   -0.17840
 10 Li   -0.08436    0.04706    0.14551
 11 Li    0.19343   -0.21281    0.18131
 12 Li   -0.25661    0.24915    0.14176
 13 Li    0.08569   -0.05295    0.14838
 14 Li    0.22530   -0.06253   -0.17252
 15 Li   -0.27426    0.05290    0.17465
 16 Li    0.00019   -0.00022   -0.04427
 17 Li   -0.00014    0.00001   -0.04459
 18 Li   -0.00017   -0.00005   -0.04449
 19 Li    0.00016   -0.00021   -0.04422
 20 Li   -0.00024    0.00019   -0.04427
 21 Li    0.00008   -0.00005   -0.04449
 22 Li    0.00010    0.00001   -0.04460
 23 Li   -0.00023    0.00014   -0.04422
 24 Li   -0.00014   -0.00022   -0.05933
 25 Li   -0.00011    0.00008   -0.05383
 26 Li    0.00013   -0.00009   -0.05385
 27 Li    0.00010    0.00024   -0.05837
 28 Li    0.00547   -0.00336    0.00470
 29 Li   -0.00474    0.00412   -0.00157
 30 Li   -0.00573    0.00194   -0.00329
 31 Li    0.00440   -0.00237    0.00633
 32 Li   -0.00592    0.00356    0.00478
 33 Li    0.00415   -0.00361   -0.00316
 34 Li    0.00537   -0.00158   -0.00161
 35 Li   -0.00478    0.00287    0.00609
 36 Li    0.00300    0.00429    0.04844
 37 Li    0.00186   -0.00218    0.01221
 38 Li   -0.00406    0.00381    0.01331
 39 Li   -0.00102   -0.00580    0.02529
 40 Li   -0.00325    0.00577    0.03461
 41 Li    0.00123   -0.00659    0.01979
 42 Li    0.00765    0.00280    0.01929
 43 Li   -0.00092   -0.00383    0.02747
 44 Li    0.00628   -0.00032    0.03229
 45 Li   -0.00173    0.00799    0.01871
 46 Li   -0.00598   -0.00221    0.01853
 47 Li   -0.00303   -0.00203    0.02652
 48 N    -0.00024    0.00008    0.09676
 49 N    -0.00001    0.00002    0.09636
 50 N    -0.00044    0.00026    0.09676
 51 N    -0.00044   -0.00026    0.08685
 52 N    -0.00069   -0.00105    0.01253
 53 N    -0.00076    0.00052    0.08346
 54 N     0.00060   -0.00035    0.08423
 55 N     0.00061    0.00145    0.02502
 56 N     0.00870    0.01499    0.07059
 57 N     0.00635   -0.00513    0.01526
 58 N    -0.00789    0.00338    0.01760
 59 N    -0.00892   -0.01527    0.01900
 60 N    -0.11022   -0.16808   -0.24746
 61 N    -0.03152    0.03340   -0.02358
 62 N     0.04707   -0.00145   -0.03009
 63 N     0.05271    0.08697   -0.11134
 64 Li   -0.03836   -0.05352   -0.43324

System changes: positions 

Initializing position-dependent things.

Density initialized from wave functions
                                         
                                         
                                         
                                         
                                         
                   Li                    
           Li N    Li                    
             Li        N  Li             
                 NLi Li  N               
              Li    Li Li   Li           
                                         
           Li N Li Li  N Li              
                  Li      Li             
             Li N    Li  N               
              Li    Li Li   Li           
                                         
           Li N Li Li  N Li              
                  Li      Li             
             Li N    Li  N               
              Li    Li Li   Li           
           Li      Li                    
              N Li     N Li              
             Li   Li Li   Li             
                N        N               
              Li    Li Li   Li           
                                         
                Li       Li              
                                         
                                         
                                         
                                         

Positions:
   0 Li     1.753189    1.012426    1.530029    ( 0.0000,  0.0000,  0.0000)
   1 Li    -0.000191    4.049369    1.530029    ( 0.0000,  0.0000,  0.0000)
   2 Li     5.259899    1.012426    1.530029    ( 0.0000,  0.0000,  0.0000)
   3 Li     3.506519    4.049369    1.530029    ( 0.0000,  0.0000,  0.0000)
   4 Li     1.747672    1.010826   13.278553    ( 0.0000,  0.0000,  0.0000)
   5 Li    -0.018379    4.061258   13.330162    ( 0.0000,  0.0000,  0.0000)
   6 Li     5.280036    0.997928   13.331402    ( 0.0000,  0.0000,  0.0000)
   7 Li     3.507612    4.060794   13.258407    ( 0.0000,  0.0000,  0.0000)
   8 Li     3.480265    0.036118   15.575607    ( 0.0000,  0.0000,  0.0000)
   9 Li     1.706640    3.098795   14.856694    ( 0.0000,  0.0000,  0.0000)
  10 Li     6.997662    0.001123   15.198417    ( 0.0000,  0.0000,  0.0000)
  11 Li     5.189978    3.054549   15.727299    ( 0.0000,  0.0000,  0.0000)
  12 Li     0.043766    2.021793   15.582488    ( 0.0000,  0.0000,  0.0000)
  13 Li    -1.746334    5.051557   15.190805    ( 0.0000,  0.0000,  0.0000)
  14 Li     3.580256    2.015169   14.841250    ( 0.0000,  0.0000,  0.0000)
  15 Li     1.800261    5.011083   15.738949    ( 0.0000,  0.0000,  0.0000)
  16 Li     3.506465    0.000182    3.465092    ( 0.0000,  0.0000,  0.0000)
  17 Li     1.753085    3.037125    3.465092    ( 0.0000,  0.0000,  0.0000)
  18 Li     7.013175    0.000182    3.465092    ( 0.0000,  0.0000,  0.0000)
  19 Li     5.259795    3.037125    3.465092    ( 0.0000,  0.0000,  0.0000)
  20 Li    -0.000262    2.024791    3.465092    ( 0.0000,  0.0000,  0.0000)
  21 Li    -1.753642    5.061734    3.465092    ( 0.0000,  0.0000,  0.0000)
  22 Li     3.506448    2.024791    3.465092    ( 0.0000,  0.0000,  0.0000)
  23 Li     1.753068    5.061734    3.465092    ( 0.0000,  0.0000,  0.0000)
  24 Li     1.753084    1.012487    5.431887    ( 0.0000,  0.0000,  0.0000)
  25 Li    -0.000296    4.049430    5.431887    ( 0.0000,  0.0000,  0.0000)
  26 Li     5.259794    1.012487    5.431887    ( 0.0000,  0.0000,  0.0000)
  27 Li     3.506414    4.049430    5.431887    ( 0.0000,  0.0000,  0.0000)
  28 Li     3.506429    0.000182    7.378027    ( 0.0000,  0.0000,  0.0000)
  29 Li     1.753049    3.037125    7.378027    ( 0.0000,  0.0000,  0.0000)
  30 Li     7.013139    0.000182    7.378027    ( 0.0000,  0.0000,  0.0000)
  31 Li     5.259759    3.037125    7.378027    ( 0.0000,  0.0000,  0.0000)
  32 Li    -0.000297    2.024791    7.378027    ( 0.0000,  0.0000,  0.0000)
  33 Li    -1.753677    5.061734    7.378027    ( 0.0000,  0.0000,  0.0000)
  34 Li     3.506413    2.024791    7.378027    ( 0.0000,  0.0000,  0.0000)
  35 Li     1.753033    5.061734    7.378027    ( 0.0000,  0.0000,  0.0000)
  36 Li     1.752514    1.012268    9.329057    ( 0.0000,  0.0000,  0.0000)
  37 Li    -0.001035    4.049883    9.353668    ( 0.0000,  0.0000,  0.0000)
  38 Li     5.259558    1.012799    9.353767    ( 0.0000,  0.0000,  0.0000)
  39 Li     3.506427    4.050171    9.333273    ( 0.0000,  0.0000,  0.0000)
  40 Li     3.508477    0.000074   11.332832    ( 0.0000,  0.0000,  0.0000)
  41 Li     1.750281    3.039768   11.271374    ( 0.0000,  0.0000,  0.0000)
  42 Li     7.008986    0.002079   11.264817    ( 0.0000,  0.0000,  0.0000)
  43 Li     5.260528    3.036143   11.348001    ( 0.0000,  0.0000,  0.0000)
  44 Li    -0.003386    2.027835   11.332315    ( 0.0000,  0.0000,  0.0000)
  45 Li    -1.751530    5.059949   11.266370    ( 0.0000,  0.0000,  0.0000)
  46 Li     3.508425    2.024743   11.272453    ( 0.0000,  0.0000,  0.0000)
  47 Li     1.749910    5.062828   11.344000    ( 0.0000,  0.0000,  0.0000)
  48 N      1.753084    1.012487    3.439048    ( 0.0000,  0.0000,  0.0000)
  49 N     -0.000296    4.049430    3.439048    ( 0.0000,  0.0000,  0.0000)
  50 N      5.259794    1.012487    3.439048    ( 0.0000,  0.0000,  0.0000)
  51 N      3.506414    4.049430    3.439048    ( 0.0000,  0.0000,  0.0000)
  52 N      1.753031    1.012517    7.360963    ( 0.0000,  0.0000,  0.0000)
  53 N     -0.000349    4.049460    7.360963    ( 0.0000,  0.0000,  0.0000)
  54 N      5.259741    1.012517    7.360963    ( 0.0000,  0.0000,  0.0000)
  55 N      3.506361    4.049460    7.360963    ( 0.0000,  0.0000,  0.0000)
  56 N      1.750806    1.010993   11.273232    ( 0.0000,  0.0000,  0.0000)
  57 N     -0.001664    4.050677   11.310562    ( 0.0000,  0.0000,  0.0000)
  58 N      5.259833    1.012757   11.311249    ( 0.0000,  0.0000,  0.0000)
  59 N      3.506750    4.052270   11.275137    ( 0.0000,  0.0000,  0.0000)
  60 N      1.810785    1.110383   15.298504    ( 0.0000,  0.0000,  0.0000)
  61 N     -0.014207    4.055447   15.283042    ( 0.0000,  0.0000,  0.0000)
  62 N      5.268130    1.004932   15.286652    ( 0.0000,  0.0000,  0.0000)
  63 N      3.469434    3.988221   15.230280    ( 0.0000,  0.0000,  0.0000)
  64 Li     2.512756    2.286998   16.851804    ( 0.0000,  0.0000,  0.0000)

Unit cell:
           periodic     x           y           z      points  spacing
  1. axis:    yes    7.013420    0.000000    0.000000    40     0.1518
  2. axis:    yes   -3.506760    6.073886    0.000000    40     0.1518
  3. axis:    yes    0.000000    0.000000   29.936001   160     0.1871

  Lengths:   7.013420   7.013520  29.936001
  Angles:   90.000000  90.000000 120.000000

Effective grid spacing dv^(1/3) = 0.1708

                     log10-error:    total        iterations:
           time      wfs    density  energy       fermi  poisson
iter:   1  10:52:28  -2.81         -234.745776    3             
iter:   2  10:53:09  -3.61  -2.24  -234.835945    4             
iter:   3  10:53:48  -4.47  -2.11  -234.745010    3             
iter:   4  10:54:28  -4.36  -2.50  -234.751832    3             
iter:   5  10:55:09  -4.57  -2.19  -234.747820    3             
iter:   6  10:55:49  -5.20  -2.51  -234.736891    3             
iter:   7  10:56:29  -5.08  -2.78  -234.739597    3             
iter:   8  10:57:10  -5.42  -2.71  -234.731102    2             
iter:   9  10:57:50  -6.49  -3.31  -234.731009    2             
iter:  10  10:58:31  -5.72  -3.30  -234.731689    2             
iter:  11  10:59:12  -6.81  -3.78  -234.731550    2             
iter:  12  10:59:52  -7.54  -3.95  -234.731643    2             
iter:  13  11:00:32  -7.24  -3.95  -234.731627    2             
iter:  14  11:01:12  -7.62  -4.04  -234.731656    2             

Converged after 14 iterations.

Dipole moment: (-1.700198, 1.061393, -11.432342) |e|*Ang

Energy contributions relative to reference atoms: (reference = -33644.147259)

Kinetic:       +255.214653
Potential:     -188.296427
External:        +0.000000
XC:            -300.323569
Entropy (-ST):   -0.073579
Local:           -1.289522
--------------------------
Free energy:   -234.768445
Extrapolated:  -234.731656

Fermi level: -0.31882

Showing only first 2 kpts
 Kpt  Band  Eigenvalues  Occupancy
  0    62     -0.57909    0.07956
  0    63     -0.16676    0.00365
  0    64     -0.02631    0.00023
  0    65      0.08856    0.00002

  1    62     -0.64263    0.15975
  1    63     -0.35194    0.10557
  1    64     -0.22448    0.02106
  1    65      0.28676    0.00000



Forces in eV/Ang:
  0 Li   -0.00007    0.00005   -0.05467
  1 Li   -0.00008    0.00005   -0.05466
  2 Li   -0.00007    0.00005   -0.05467
  3 Li   -0.00008    0.00005   -0.05457
  4 Li   -0.09266   -0.15572    0.02366
  5 Li   -0.16486    0.08813   -0.08097
  6 Li    0.16425   -0.09764   -0.07867
  7 Li    0.10574    0.18664   -0.01767
  8 Li    0.28721   -0.06934    0.11012
  9 Li   -0.17405    0.15240   -0.13425
 10 Li   -0.01861    0.01931    0.12686
 11 Li    0.15057   -0.17211    0.16131
 12 Li   -0.19604    0.21092    0.11577
 13 Li    0.02419   -0.01314    0.12979
 14 Li    0.22570   -0.06685   -0.12644
 15 Li   -0.22376    0.04051    0.15727
 16 Li    0.00019   -0.00022   -0.04404
 17 Li   -0.00014    0.00002   -0.04433
 18 Li   -0.00017   -0.00006   -0.04429
 19 Li    0.00015   -0.00020   -0.04398
 20 Li   -0.00025    0.00019   -0.04405
 21 Li    0.00007   -0.00006   -0.04428
 22 Li    0.00011    0.00002   -0.04433
 23 Li   -0.00023    0.00014   -0.04399
 24 Li   -0.00007   -0.00011   -0.06105
 25 Li   -0.00006    0.00004   -0.05562
 26 Li    0.00005   -0.00004   -0.05563
 27 Li    0.00005    0.00012   -0.06016
 28 Li    0.00559   -0.00325    0.00463
 29 Li   -0.00463    0.00413   -0.00146
 30 Li   -0.00586    0.00194   -0.00327
 31 Li    0.00432   -0.00249    0.00596
 32 Li   -0.00584    0.00369    0.00471
 33 Li    0.00420   -0.00367   -0.00337
 34 Li    0.00525   -0.00150   -0.00173
 35 Li   -0.00481    0.00272    0.00616
 36 Li    0.00335    0.00506    0.06277
 37 Li    0.00253   -0.00244    0.02008
 38 Li   -0.00442    0.00383    0.02125
 39 Li   -0.00169   -0.00639    0.03393
 40 Li   -0.01061    0.01060    0.04077
 41 Li    0.00386   -0.01076    0.02582
 42 Li    0.01476    0.00151    0.02600
 43 Li   -0.00686   -0.00125    0.02868
 44 Li    0.01429   -0.00449    0.03827
 45 Li   -0.00656    0.01317    0.02503
 46 Li   -0.01065   -0.00176    0.02440
 47 Li    0.00179   -0.00554    0.02825
 48 N    -0.00030    0.00001    0.09960
 49 N    -0.00002    0.00003    0.09840
 50 N    -0.00041    0.00023    0.09894
 51 N    -0.00039   -0.00014    0.08916
 52 N    -0.00043   -0.00071    0.01834
 53 N    -0.00066    0.00041    0.08728
 54 N     0.00034   -0.00006    0.08820
 55 N     0.00057    0.00104    0.02784
 56 N     0.01117    0.01993    0.05409
 57 N     0.00927   -0.00591    0.00157
 58 N    -0.00979    0.00300    0.00384
 59 N    -0.01191   -0.01815    0.00424
 60 N    -0.05461   -0.06619   -0.33026
 61 N     0.08978   -0.04223   -0.00173
 62 N    -0.07701    0.05736   -0.00864
 63 N    -0.02505   -0.05182   -0.12629
 64 Li   -0.01967   -0.02150   -0.32141

System changes: positions 

Initializing position-dependent things.

Density initialized from wave functions
                                         
                                         
                                         
                                         
                                         
                   Li                    
           Li N    Li  N  Li             
             Li                          
                 NLi Li  N               
              Li    Li Li   Li           
                                         
           Li N Li Li  N Li              
                  Li      Li             
             Li N    Li  N               
              Li    Li Li   Li           
                                         
           Li N Li Li  N Li              
                  Li      Li             
             Li N    Li  N               
              Li    Li Li   Li           
           Li      Li                    
              N Li     N Li              
             Li   Li Li   Li             
                N        N               
              Li    Li Li   Li           
                                         
                Li       Li              
                                         
                                         
                                         
                                         

Positions:
   0 Li     1.753189    1.012426    1.530029    ( 0.0000,  0.0000,  0.0000)
   1 Li    -0.000191    4.049369    1.530029    ( 0.0000,  0.0000,  0.0000)
   2 Li     5.259899    1.012426    1.530029    ( 0.0000,  0.0000,  0.0000)
   3 Li     3.506519    4.049369    1.530029    ( 0.0000,  0.0000,  0.0000)
   4 Li     1.744166    1.005005   13.290788    ( 0.0000,  0.0000,  0.0000)
   5 Li    -0.027862    4.066053   13.328186    ( 0.0000,  0.0000,  0.0000)
   6 Li     5.289176    0.992514   13.329851    ( 0.0000,  0.0000,  0.0000)
   7 Li     3.512212    4.068830   13.260449    ( 0.0000,  0.0000,  0.0000)
   8 Li     3.497243    0.035308   15.588679    ( 0.0000,  0.0000,  0.0000)
   9 Li     1.699329    3.107549   14.826846    ( 0.0000,  0.0000,  0.0000)
  10 Li     6.991948    0.004671   15.214536    ( 0.0000,  0.0000,  0.0000)
  11 Li     5.193907    3.041556   15.742099    ( 0.0000,  0.0000,  0.0000)
  12 Li     0.034587    2.036371   15.596501    ( 0.0000,  0.0000,  0.0000)
  13 Li    -1.740038    5.048447   15.207123    ( 0.0000,  0.0000,  0.0000)
  14 Li     3.591618    2.012948   14.811278    ( 0.0000,  0.0000,  0.0000)
  15 Li     1.787688    5.007319   15.752996    ( 0.0000,  0.0000,  0.0000)
  16 Li     3.506465    0.000182    3.465092    ( 0.0000,  0.0000,  0.0000)
  17 Li     1.753085    3.037125    3.465092    ( 0.0000,  0.0000,  0.0000)
  18 Li     7.013175    0.000182    3.465092    ( 0.0000,  0.0000,  0.0000)
  19 Li     5.259795    3.037125    3.465092    ( 0.0000,  0.0000,  0.0000)
  20 Li    -0.000262    2.024791    3.465092    ( 0.0000,  0.0000,  0.0000)
  21 Li    -1.753642    5.061734    3.465092    ( 0.0000,  0.0000,  0.0000)
  22 Li     3.506448    2.024791    3.465092    ( 0.0000,  0.0000,  0.0000)
  23 Li     1.753068    5.061734    3.465092    ( 0.0000,  0.0000,  0.0000)
  24 Li     1.753084    1.012487    5.431887    ( 0.0000,  0.0000,  0.0000)
  25 Li    -0.000296    4.049430    5.431887    ( 0.0000,  0.0000,  0.0000)
  26 Li     5.259794    1.012487    5.431887    ( 0.0000,  0.0000,  0.0000)
  27 Li     3.506414    4.049430    5.431887    ( 0.0000,  0.0000,  0.0000)
  28 Li     3.506429    0.000182    7.378027    ( 0.0000,  0.0000,  0.0000)
  29 Li     1.753049    3.037125    7.378027    ( 0.0000,  0.0000,  0.0000)
  30 Li     7.013139    0.000182    7.378027    ( 0.0000,  0.0000,  0.0000)
  31 Li     5.259759    3.037125    7.378027    ( 0.0000,  0.0000,  0.0000)
  32 Li    -0.000297    2.024791    7.378027    ( 0.0000,  0.0000,  0.0000)
  33 Li    -1.753677    5.061734    7.378027    ( 0.0000,  0.0000,  0.0000)
  34 Li     3.506413    2.024791    7.378027    ( 0.0000,  0.0000,  0.0000)
  35 Li     1.753033    5.061734    7.378027    ( 0.0000,  0.0000,  0.0000)
  36 Li     1.752594    1.012295    9.330771    ( 0.0000,  0.0000,  0.0000)
  37 Li    -0.001144    4.049815    9.353818    ( 0.0000,  0.0000,  0.0000)
  38 Li     5.259391    1.013065    9.353987    ( 0.0000,  0.0000,  0.0000)
  39 Li     3.506598    4.049977    9.333715    ( 0.0000,  0.0000,  0.0000)
  40 Li     3.508827    0.000105   11.335365    ( 0.0000,  0.0000,  0.0000)
  41 Li     1.750121    3.039756   11.272963    ( 0.0000,  0.0000,  0.0000)
  42 Li     7.008825    0.002342   11.265260    ( 0.0000,  0.0000,  0.0000)
  43 Li     5.260823    3.035715   11.349818    ( 0.0000,  0.0000,  0.0000)
  44 Li    -0.003535    2.028145   11.334673    ( 0.0000,  0.0000,  0.0000)
  45 Li    -1.751238    5.059988   11.266884    ( 0.0000,  0.0000,  0.0000)
  46 Li     3.508457    2.024583   11.274028    ( 0.0000,  0.0000,  0.0000)
  47 Li     1.749402    5.062873   11.345468    ( 0.0000,  0.0000,  0.0000)
  48 N      1.753084    1.012487    3.439048    ( 0.0000,  0.0000,  0.0000)
[...]

Unit cell:
           periodic     x           y           z      points  spacing
  1. axis:    yes    7.013420    0.000000    0.000000    40     0.1518
  2. axis:    yes   -3.506760    6.073886    0.000000    40     0.1518
  3. axis:    yes    0.000000    0.000000   29.936001   160     0.1871

  Lengths:   7.013420   7.013520  29.936001
  Angles:   90.000000  90.000000 120.000000

Effective grid spacing dv^(1/3) = 0.1708

                     log10-error:    total        iterations:
           time      wfs    density  energy       fermi  poisson
iter:   1  16:54:45  -4.61         -235.056833    2             
iter:   2  16:55:25  -5.67  -3.19  -235.054206    3             
iter:   3  16:56:05  -6.42  -2.93  -235.055404    2             
iter:   4  16:56:45  -6.08  -3.52  -235.055398    2             
iter:   5  16:57:25  -7.32  -3.81  -235.055573    2             
iter:   6  16:58:05  -6.52  -3.85  -235.055573    2             
iter:   7  16:58:46  -6.97  -4.08  -235.055502    2             
iter:   8  16:59:26  -7.93  -4.20  -235.055456    2             

Converged after 8 iterations.

Dipole moment: (0.065918, 0.474033, -11.473696) |e|*Ang

Energy contributions relative to reference atoms: (reference = -33644.147259)

Kinetic:       +254.123564
Potential:     -187.662752
External:        +0.000000
XC:            -300.189413
Entropy (-ST):   -0.074478
Local:           -1.289616
--------------------------
Free energy:   -235.092695
Extrapolated:  -235.055456

Fermi level: -0.32718

Showing only first 2 kpts
 Kpt  Band  Eigenvalues  Occupancy
  0    62     -0.65116    0.07988
  0    63     -0.14138    0.00190
  0    64     -0.06181    0.00039
  0    65      0.03162    0.00006

  1    62     -0.69835    0.15990
  1    63     -0.36240    0.10706
  1    64     -0.22060    0.01697
  1    65      0.24562    0.00000



Forces in eV/Ang:
  0 Li   -0.00007    0.00006   -0.06085
  1 Li   -0.00006    0.00005   -0.06096
  2 Li   -0.00008    0.00006   -0.06094
  3 Li   -0.00009    0.00003   -0.06101
  4 Li   -0.00058    0.00043    0.02298
  5 Li   -0.01258    0.00220   -0.00487
  6 Li    0.00879   -0.00599   -0.01015
  7 Li    0.00135    0.00377    0.00791
  8 Li   -0.00798   -0.01462   -0.03918
  9 Li    0.02048    0.00410   -0.01225
 10 Li   -0.00699    0.00709   -0.03997
 11 Li    0.02692   -0.00779    0.01133
 12 Li   -0.00571   -0.01759   -0.03232
 13 Li    0.00834    0.00050   -0.02529
 14 Li   -0.00774    0.02147   -0.01616
 15 Li   -0.02258    0.01879    0.01936
 16 Li    0.00023   -0.00016   -0.04870
 17 Li   -0.00034   -0.00013   -0.04861
 18 Li   -0.00020    0.00021   -0.04988
 19 Li    0.00033   -0.00040   -0.04889
 20 Li   -0.00022    0.00024   -0.04872
 21 Li    0.00031    0.00006   -0.04989
 22 Li    0.00009   -0.00024   -0.04865
 23 Li   -0.00048    0.00021   -0.04884
 24 Li    0.00078    0.00137   -0.07550
 25 Li    0.00082   -0.00036   -0.06557
 26 Li   -0.00071    0.00041   -0.06592
 27 Li   -0.00078   -0.00119   -0.07220
 28 Li    0.00257   -0.01412    0.00590
 29 Li   -0.01236    0.00668   -0.04348
 30 Li   -0.00498    0.00095    0.02875
 31 Li    0.01223    0.00396    0.01082
 32 Li   -0.01435   -0.00367    0.00501
 33 Li    0.00316   -0.00396    0.02898
 34 Li    0.01168   -0.00665   -0.04388
 35 Li   -0.00343    0.01265    0.00662
 36 Li    0.01316    0.02175    0.01100
 37 Li    0.01110   -0.00846    0.00247
 38 Li   -0.01352    0.00529    0.00074
 39 Li   -0.01451   -0.02560    0.01860
 40 Li   -0.00355    0.00568   -0.00520
 41 Li   -0.00085   -0.00642    0.00666
 42 Li    0.00321    0.00156    0.00685
 43 Li   -0.00071   -0.00053    0.00187
 44 Li    0.00631    0.00013   -0.01641
 45 Li    0.00053    0.00266    0.00229
 46 Li   -0.00453   -0.00401   -0.00819
 47 Li   -0.00033   -0.00057   -0.00781
 48 N    -0.00060   -0.00055    0.11253
 49 N    -0.00084    0.00045    0.11574
 50 N     0.00039   -0.00018    0.11434
 51 N     0.00036    0.00107    0.11502
 52 N     0.01322    0.02343   -0.00259
 53 N     0.01792   -0.01000    0.15224
 54 N    -0.01764    0.00886    0.14495
 55 N    -0.01585   -0.02547    0.09818
 56 N    -0.00205   -0.00368   -0.02171
 57 N    -0.00070    0.00022   -0.01284
 58 N     0.00071   -0.00029   -0.01669
 59 N     0.00171    0.00257   -0.01028
 60 N     0.00734    0.01261    0.01805
 61 N     0.00677    0.00583    0.02946
 62 N     0.00108    0.00636    0.03045
 63 N    -0.00974   -0.01834    0.04782
 64 Li    0.00094   -0.00301   -0.00794

System changes: positions 

Initializing position-dependent things.

Density initialized from wave functions
                                         
                                         
                                         
                                         
                                         
           Li      Li                    
              N    Li N   Li             
             Li   Li                     
              Li N  LiLiiN  Li           
                                         
           Li      Li    Li              
              N LiLi   N  Li             
             Li      Li                  
              LiN   Li LiN               
                            Li           
           Li N Li Li  N Li              
                  Li      Li             
             Li N    Li  N               
              Li    Li Li   Li           
                                         
           Li N Li Li  N Li              
                  Li      Li             
             Li N    Li  N               
              Li    Li Li   Li           
                                         
                Li       Li              
                                         
                                         
                                         
                                         

Positions:
   0 Li     1.753189    1.012426    1.530029    ( 0.0000,  0.0000,  0.0000)
   1 Li    -0.000191    4.049369    1.530029    ( 0.0000,  0.0000,  0.0000)
   2 Li     5.259899    1.012426    1.530029    ( 0.0000,  0.0000,  0.0000)
   3 Li     3.506519    4.049369    1.530029    ( 0.0000,  0.0000,  0.0000)
   4 Li     1.654962    0.850402   13.202783    ( 0.0000,  0.0000,  0.0000)
   5 Li    -0.227826    4.144062   13.326195    ( 0.0000,  0.0000,  0.0000)
   6 Li     5.457269    0.868146   13.317898    ( 0.0000,  0.0000,  0.0000)
   7 Li     3.634702    4.273422   13.284963    ( 0.0000,  0.0000,  0.0000)
   8 Li     3.543924    0.075288   15.405688    ( 0.0000,  0.0000,  0.0000)
   9 Li     1.675919    3.185819   14.537954    ( 0.0000,  0.0000,  0.0000)
  10 Li     6.985332    0.001717   15.349331    ( 0.0000,  0.0000,  0.0000)
  11 Li     5.169698    2.962757   15.828107    ( 0.0000,  0.0000,  0.0000)
  12 Li     0.052729    2.092387   15.429295    ( 0.0000,  0.0000,  0.0000)
  13 Li    -1.738890    5.045070   15.377392    ( 0.0000,  0.0000,  0.0000)
  14 Li     3.669240    2.032935   14.527564    ( 0.0000,  0.0000,  0.0000)
  15 Li     1.734676    4.944838   15.848480    ( 0.0000,  0.0000,  0.0000)
  16 Li     3.506465    0.000182    3.465092    ( 0.0000,  0.0000,  0.0000)
  17 Li     1.753085    3.037125    3.465092    ( 0.0000,  0.0000,  0.0000)
  18 Li     7.013175    0.000182    3.465092    ( 0.0000,  0.0000,  0.0000)
  19 Li     5.259795    3.037125    3.465092    ( 0.0000,  0.0000,  0.0000)
  20 Li    -0.000262    2.024791    3.465092    ( 0.0000,  0.0000,  0.0000)
  21 Li    -1.753642    5.061734    3.465092    ( 0.0000,  0.0000,  0.0000)
  22 Li     3.506448    2.024791    3.465092    ( 0.0000,  0.0000,  0.0000)
  23 Li     1.753068    5.061734    3.465092    ( 0.0000,  0.0000,  0.0000)
  24 Li     1.753084    1.012487    5.431887    ( 0.0000,  0.0000,  0.0000)
  25 Li    -0.000296    4.049430    5.431887    ( 0.0000,  0.0000,  0.0000)
  26 Li     5.259794    1.012487    5.431887    ( 0.0000,  0.0000,  0.0000)
  27 Li     3.506414    4.049430    5.431887    ( 0.0000,  0.0000,  0.0000)
  28 Li     3.506429    0.000182    7.378027    ( 0.0000,  0.0000,  0.0000)
  29 Li     1.753049    3.037125    7.378027    ( 0.0000,  0.0000,  0.0000)
  30 Li     7.013139    0.000182    7.378027    ( 0.0000,  0.0000,  0.0000)
  31 Li     5.259759    3.037125    7.378027    ( 0.0000,  0.0000,  0.0000)
  32 Li    -0.000297    2.024791    7.378027    ( 0.0000,  0.0000,  0.0000)
  33 Li    -1.753677    5.061734    7.378027    ( 0.0000,  0.0000,  0.0000)
  34 Li     3.506413    2.024791    7.378027    ( 0.0000,  0.0000,  0.0000)
  35 Li     1.753033    5.061734    7.378027    ( 0.0000,  0.0000,  0.0000)
  36 Li     1.768409    1.040968    9.319756    ( 0.0000,  0.0000,  0.0000)
  37 Li     0.020496    4.035121    9.368030    ( 0.0000,  0.0000,  0.0000)
  38 Li     5.236465    1.021594    9.365934    ( 0.0000,  0.0000,  0.0000)
  39 Li     3.484714    4.015323    9.343676    ( 0.0000,  0.0000,  0.0000)
  40 Li     3.505455   -0.001976   11.380420    ( 0.0000,  0.0000,  0.0000)
  41 Li     1.747855    3.032285   11.345651    ( 0.0000,  0.0000,  0.0000)
  42 Li     7.002008   -0.002599   11.155521    ( 0.0000,  0.0000,  0.0000)
  43 Li     5.250826    3.024281   11.421350    ( 0.0000,  0.0000,  0.0000)
  44 Li    -0.005078    2.025553   11.355185    ( 0.0000,  0.0000,  0.0000)
  45 Li    -1.750559    5.050513   11.143555    ( 0.0000,  0.0000,  0.0000)
  46 Li     3.503747    2.018733   11.315765    ( 0.0000,  0.0000,  0.0000)
  47 Li     1.743092    5.049365   11.401740    ( 0.0000,  0.0000,  0.0000)
  48 N      1.753084    1.012487    3.439048    ( 0.0000,  0.0000,  0.0000)
  49 N     -0.000296    4.049430    3.439048    ( 0.0000,  0.0000,  0.0000)
  50 N      5.259794    1.012487    3.439048    ( 0.0000,  0.0000,  0.0000)
  51 N      3.506414    4.049430    3.439048    ( 0.0000,  0.0000,  0.0000)
  52 N      1.753031    1.012517    7.360963    ( 0.0000,  0.0000,  0.0000)
  53 N     -0.000349    4.049460    7.360963    ( 0.0000,  0.0000,  0.0000)
  54 N      5.259741    1.012517    7.360963    ( 0.0000,  0.0000,  0.0000)
  55 N      3.506361    4.049460    7.360963    ( 0.0000,  0.0000,  0.0000)
  56 N      1.744410    1.000342   11.241587    ( 0.0000,  0.0000,  0.0000)
  57 N     -0.015654    4.047161   11.335926    ( 0.0000,  0.0000,  0.0000)
  58 N      5.263412    0.999503   11.331370    ( 0.0000,  0.0000,  0.0000)
  59 N      3.507399    4.053551   11.299822    ( 0.0000,  0.0000,  0.0000)
  60 N      1.808480    1.106866   15.096103    ( 0.0000,  0.0000,  0.0000)
  61 N     -0.010973    4.070729   15.255342    ( 0.0000,  0.0000,  0.0000)
  62 N      5.283463    1.015589   15.244467    ( 0.0000,  0.0000,  0.0000)
  63 N      3.454723    3.960073   15.231600    ( 0.0000,  0.0000,  0.0000)
  64 Li     2.571423    2.407686   16.462406    ( 0.0000,  0.0000,  0.0000)

Unit cell:
           periodic     x           y           z      points  spacing
  1. axis:    yes    7.013420    0.000000    0.000000    40     0.1518
  2. axis:    yes   -3.506760    6.073886    0.000000    40     0.1518
  3. axis:    yes    0.000000    0.000000   29.936001   160     0.1871

  Lengths:   7.013420   7.013520  29.936001
  Angles:   90.000000  90.000000 120.000000

Effective grid spacing dv^(1/3) = 0.1708

                     log10-error:    total        iterations:
           time      wfs    density  energy       fermi  poisson
iter:   1  17:01:31  -4.44         -235.059785    2             
iter:   2  17:02:13  -5.21  -2.89  -235.056645    3             
iter:   3  17:02:52  -5.79  -2.56  -235.056120    3             
iter:   4  17:03:33  -5.79  -3.43  -235.055316    2             
iter:   5  17:04:13  -6.64  -3.38  -235.055963    2             
iter:   6  17:04:53  -6.43  -3.81  -235.056164    2             
iter:   7  17:05:33  -6.67  -3.88  -235.055945    2             
iter:   8  17:06:13  -7.48  -4.06  -235.055909    2             

Converged after 8 iterations.

Dipole moment: (0.050123, 0.486376, -11.474369) |e|*Ang

Energy contributions relative to reference atoms: (reference = -33644.147259)

Kinetic:       +254.038108
Potential:     -187.600859
External:        +0.000000
XC:            -300.166379
Entropy (-ST):   -0.074546
Local:           -1.289506
--------------------------
Free energy:   -235.093182
Extrapolated:  -235.055909

Fermi level: -0.32793

Showing only first 2 kpts
 Kpt  Band  Eigenvalues  Occupancy
  0    62     -0.64972    0.07987
  0    63     -0.14162    0.00188
  0    64     -0.06301    0.00040
  0    65      0.03192    0.00006

  1    62     -0.69864    0.15990
  1    63     -0.36295    0.10692
  1    64     -0.22115    0.01691
  1    65      0.24557    0.00000



Forces in eV/Ang:
  0 Li   -0.00006    0.00007   -0.06007
  1 Li   -0.00006    0.00005   -0.06019
  2 Li   -0.00008    0.00006   -0.06017
  3 Li   -0.00009    0.00002   -0.06024
  4 Li    0.00162    0.00417    0.01199
  5 Li   -0.00667   -0.00197   -0.01234
  6 Li    0.00194   -0.00283   -0.01618
  7 Li   -0.00086   -0.00051    0.00270
  8 Li   -0.00312   -0.01250   -0.03307
  9 Li    0.01839    0.00860   -0.00649
 10 Li   -0.01950    0.01034   -0.02842
 11 Li    0.02593   -0.00566    0.01373
 12 Li   -0.00747   -0.01108   -0.02588
 13 Li    0.01820   -0.00777   -0.01423
 14 Li   -0.00299    0.02101   -0.01028
 15 Li   -0.01869    0.01899    0.02144
 16 Li    0.00022   -0.00014   -0.04851
 17 Li   -0.00033   -0.00015   -0.04839
 18 Li   -0.00019    0.00022   -0.04973
 19 Li    0.00032   -0.00041   -0.04871
 20 Li   -0.00020    0.00024   -0.04853
 21 Li    0.00032    0.00007   -0.04974
 22 Li    0.00007   -0.00024   -0.04842
 23 Li   -0.00049    0.00020   -0.04866
 24 Li    0.00081    0.00143   -0.07489
 25 Li    0.00087   -0.00038   -0.06516
 26 Li   -0.00075    0.00045   -0.06554
 27 Li   -0.00080   -0.00124   -0.07153
 28 Li    0.00231   -0.01428    0.00618
 29 Li   -0.01250    0.00678   -0.04452
 30 Li   -0.00460    0.00081    0.03057
 31 Li    0.01223    0.00421    0.01107
 32 Li   -0.01434   -0.00400    0.00538
 33 Li    0.00282   -0.00370    0.03072
 34 Li    0.01183   -0.00671   -0.04500
 35 Li   -0.00319    0.01278    0.00693
 36 Li    0.01164    0.01930    0.00206
 37 Li    0.01035   -0.00771    0.00158
 38 Li   -0.01237    0.00501   -0.00009
 39 Li   -0.01309   -0.02306    0.01156
 40 Li   -0.00461    0.00350   -0.00581
 41 Li   -0.00059   -0.00565    0.00475
 42 Li    0.00387    0.00195    0.00567
 43 Li   -0.00006   -0.00039    0.00410
 44 Li    0.00507   -0.00174   -0.01720
 45 Li    0.00067    0.00358    0.00103
 46 Li   -0.00417   -0.00345   -0.01041
 47 Li   -0.00053   -0.00018   -0.00575
 48 N    -0.00062   -0.00058    0.11329
 49 N    -0.00087    0.00044    0.11697
 50 N     0.00041   -0.00019    0.11545
 51 N     0.00040    0.00112    0.11601
 52 N     0.01397    0.02465   -0.00268
 53 N     0.01855   -0.01035    0.15437
 54 N    -0.01835    0.00924    0.14680
 55 N    -0.01648   -0.02660    0.10098
 56 N    -0.00262   -0.00452   -0.00098
 57 N    -0.00158    0.00075   -0.00985
 58 N     0.00184   -0.00050   -0.01345
 59 N     0.00195    0.00301   -0.00081
 60 N    -0.00184   -0.00411    0.00478
 61 N    -0.00973    0.01520    0.02074
 62 N     0.01766   -0.00123    0.01744
 63 N     0.00075   -0.00006    0.03691
 64 Li   -0.00183   -0.00814   -0.01164

Timing:                                      incl.     excl.
-------------------------------------------------------------------
Density initialized from wave functions:   251.313   251.311   0.9% |
 Symmetrize density:                         0.001     0.001   0.0% |
Forces:                                    727.855   727.855   2.6% ||
Hamiltonian:                               155.764     0.540   0.0% |
 Atomic:                                    23.435    12.924   0.0% |
  XC Correction:                            10.511    10.511   0.0% |
 Calculate atomic Hamiltonians:             67.086    67.086   0.2% |
 Communicate:                                1.668     1.668   0.0% |
 Initialize Hamiltonian:                     0.001     0.001   0.0% |
 Poisson:                                    0.131     0.131   0.0% |
 XC 3D grid:                                62.902    62.902   0.2% |
LCAO initialization:                        15.911     0.050   0.0% |
 LCAO eigensolver:                           3.600     0.000   0.0% |
  Calculate projections:                     0.045     0.045   0.0% |
  DenseAtomicCorrection:                     0.019     0.019   0.0% |
  Distribute overlap matrix:                 0.001     0.001   0.0% |
  Orbital Layouts:                           0.154     0.154   0.0% |
  Potential matrix:                          3.378     3.378   0.0% |
  Sum over cells:                            0.004     0.004   0.0% |
 LCAO to grid:                              10.761    10.761   0.0% |
 Set positions (LCAO WFS):                   1.499     0.326   0.0% |
  Basic WFS set positions:                   0.002     0.002   0.0% |
  Basis functions set positions:             0.000     0.000   0.0% |
  P tci:                                     0.572     0.572   0.0% |
  ST tci:                                    0.253     0.253   0.0% |
  mktci:                                     0.346     0.346   0.0% |
PWDescriptor:                                1.046     1.046   0.0% |
Redistribute:                                0.408     0.408   0.0% |
SCF-cycle:                               23563.566  9488.024  34.1% |-------------|
 Davidson:                               10074.062  3828.881  13.7% |----|
  Apply H:                                 923.206   919.280   3.3% ||
   HMM T:                                    3.926     3.926   0.0% |
  Subspace diag:                          1494.154     0.106   0.0% |
   calc_h_matrix:                         1041.008   167.374   0.6% |
    Apply H:                               873.634   869.656   3.1% ||
     HMM T:                                  3.977     3.977   0.0% |
   diagonalize:                             55.701    55.701   0.2% |
   rotate_psi:                             397.339   397.339   1.4% ||
  calc. matrices:                         2878.293  1129.600   4.1% |-|
   Apply H:                               1748.693  1740.896   6.2% |-|
    HMM T:                                   7.798     7.798   0.0% |
  diagonalize:                             154.603   154.603   0.6% |
  rotate_psi:                              794.925   794.925   2.9% ||
 Density:                                 1916.560     0.013   0.0% |
  Atomic density matrices:                   3.188     3.188   0.0% |
  Mix:                                    1106.690  1106.690   4.0% |-|
  Multipole moments:                         0.478     0.478   0.0% |
  Pseudo density:                          806.191   806.178   2.9% ||
   Symmetrize density:                       0.013     0.013   0.0% |
 Hamiltonian:                             1847.078     6.320   0.0% |
  Atomic:                                  285.280   177.875   0.6% |
   XC Correction:                          107.405   107.405   0.4% |
  Calculate atomic Hamiltonians:           779.463   779.463   2.8% ||
  Communicate:                              21.922    21.922   0.1% |
  Poisson:                                   1.470     1.470   0.0% |
  XC 3D grid:                              752.623   752.623   2.7% ||
 Orthonormalize:                           237.842     0.011   0.0% |
  calc_s_matrix:                             6.647     6.647   0.0% |
  inverse-cholesky:                        146.720   146.720   0.5% |
  projections:                              74.553    74.553   0.3% |
  rotate_psi_s:                              9.912     9.912   0.0% |
Set symmetry:                                0.001     0.001   0.0% |
Other:                                    3139.642  3139.642  11.3% |----|
-------------------------------------------------------------------
Total:                                             27855.505 100.0%

Date: Tue Sep  7 17:07:25 2021
