
  ___ ___ ___ _ _ _  
 |   |   |_  | | | | 
 | | | | | . | | | | 
 |__ |  _|___|_____|  20.1.0
 |___|_|             

User:   jngwng01@n944026
Date:   Tue Sep  7 09:23:09 2021
Arch:   x86_64
Pid:    2090
Python: 3.8.5
gpaw:   /uls/7/gpaw-20.1.0/lib/python3.8/site-packages/gpaw-20.1.0-py3.8-linux-x86_64.egg/gpaw
_gpaw:  /uls/7/gpaw-20.1.0/lib/python3.8/site-packages/gpaw-20.1.0-py3.8-linux-x86_64.egg/
        _gpaw.cpython-38-x86_64-linux-gnu.so
ase:    /uls/7/gpaw-20.1.0/lib/python3.8/site-packages/ase-3.20.1-py3.8.egg/ase (version 3.20.1)
numpy:  /uls/7/gpaw-20.1.0/lib/python3.8/site-packages/numpy (version 1.19.2)
scipy:  /uls/7/gpaw-20.1.0/lib/python3.8/site-packages/scipy-1.5.2-py3.8-linux-x86_64.egg/scipy (version 1.5.2)
libxc:  4.3.4
units:  Angstrom and eV
cores: 16
OMP_NUM_THREADS: 1

Input parameters:
  convergence: {density: 0.0001,
                eigenstates: 1e-07}
  kpts: [5 5 1]
  mode: {ecut: 500.0,
         gammacentered: False,
         name: pw}
  occupations: {name: fermi-dirac,
                width: 0.05}
  xc: PBE

System changes: positions, numbers, cell, pbc, initial_charges, initial_magmoms 

Initialize ...

Li-setup:
  name: Lithium
  id: 830b4218f175192f93f959cfc0aad614
  Z: 3
  valence: 1
  core: 2
  charge: 0.0
  file: /uls/7/gpaw-20.1.0/setups/gpaw-setups-0.9.20000/Li.PBE.gz
  compensation charges: gauss, rc=0.33, lmax=2
  cutoffs: 1.91(filt), 2.55(core),
  valence states:
                energy  radius
    2s(1.00)    -2.874   1.058
    2p(0.00)    -1.090   1.058
    *s          24.337   1.058

  Using partial waves for Li as LCAO basis

N-setup:
  name: Nitrogen
  id: f7500608b86eaa90eef8b1d9a670dc53
  Z: 7
  valence: 5
  core: 2
  charge: 0.0
  file: /uls/7/gpaw-20.1.0/setups/gpaw-setups-0.9.20000/N.PBE.gz
  compensation charges: gauss, rc=0.18, lmax=2
  cutoffs: 1.11(filt), 0.96(core),
  valence states:
                energy  radius
    2s(2.00)   -18.583   0.603
    2p(3.00)    -7.089   0.529
    *s           8.629   0.603
    *p          20.123   0.529
    *d           0.000   0.577

  Using partial waves for N as LCAO basis

Reference energy: -33644.147259

Spin-paired calculation

Occupation numbers:
  Fermi-Dirac: width=0.0500 eV

Convergence criteria:
  Maximum total energy change: 0.0005 eV / electron
  Maximum integral of absolute density change: 0.0001 electrons
  Maximum integral of absolute eigenstate change: 1e-07 eV^2
  Maximum number of iterations: 333

Symmetries present (total): 1

  ( 1  0  0)
  ( 0  1  0)
  ( 0  0  1)

25 k-points: 5 x 5 x 1 Monkhorst-Pack grid
13 k-points in the irreducible part of the Brillouin zone
       k-points in crystal coordinates                weights
   0:     0.00000000    0.00000000    0.00000000          1/25
   1:     0.00000000    0.20000000    0.00000000          2/25
   2:     0.00000000    0.40000000    0.00000000          2/25
   3:     0.20000000   -0.40000000    0.00000000          2/25
   4:     0.20000000   -0.20000000    0.00000000          2/25
   5:     0.20000000    0.00000000    0.00000000          2/25
   6:     0.20000000    0.20000000    0.00000000          2/25
   7:     0.20000000    0.40000000    0.00000000          2/25
   8:     0.40000000   -0.40000000    0.00000000          2/25
   9:     0.40000000   -0.20000000    0.00000000          2/25
          ...
  12:     0.40000000    0.40000000    0.00000000          2/25

Wave functions: Plane wave expansion
  Cutoff energy: 500.000 eV
  Number of coefficients (min, max): 32263, 32394
  Pulay-stress correction: 0.000000 eV/Ang^3 (de/decut=0.000000)
  Using FFTW library
  ScaLapack parameters: grid=1x1, blocksize=None
  Wavefunction extrapolation:
    Improved wavefunction reuse through dual PAW basis 

Eigensolver
   Davidson(niter=2, smin=None, normalize=True) 

Densities:
  Coarse grid: 40*40*160 grid
  Fine grid: 80*80*320 grid
  Total Charge: 0.000000 

Density mixing:
  Method: separate
  Backend: pulay
  Linear mixing parameter: 0.05
  Mixing with 5 old densities
  Damping of long wave oscillations: 50 

Hamiltonian:
  XC and Coulomb potentials evaluated on a 80*80*320 grid
  Using the PBE Exchange-Correlation functional
 

XC parameters: PBE with 2 nearest neighbor stencil

Memory estimate:
  Process memory now: 240.18 MiB
  Calculator: 170.79 MiB
    Density: 56.64 MiB
      Arrays: 25.39 MiB
      Localized functions: 21.49 MiB
      Mixer: 9.77 MiB
    Hamiltonian: 17.13 MiB
      Arrays: 16.60 MiB
      XC: 0.00 MiB
      Poisson: 0.00 MiB
      vbar: 0.52 MiB
    Wavefunctions: 97.02 MiB
      Arrays psit_nG: 40.53 MiB
      Eigensolver: 44.03 MiB
      Projections: 0.28 MiB
      Projectors: 2.10 MiB
      PW-descriptor: 10.07 MiB

Total number of cores used: 16
Parallelization over k-points: 8
Domain decomposition: 1 x 1 x 2
                      2 x 2 x 4 (xc only)

Number of atoms: 65
Number of atomic orbitals: 260
Number of bands in calculation: 82
Number of valence electrons: 129
Bands to converge: occupied

... initialized

Initializing position-dependent things.

Density initialized from atomic densities
Creating initial wave functions:
  82 bands from LCAO basis set

                                         
                                         
                                         
                                         
                                         
                    Li                   
           Li      Li                    
              N        N  Li             
             Li   Li Li                  
              LiN   Li LiN               
                            Li           
           Li   Li Li    Li              
              N   Li   N  Li             
             Li      Li                  
              LiN   Li LiN  Li           
                                         
           Li N Li Li  N Li              
                  Li      Li             
             Li N    Li  N               
              Li    Li Li   Li           
                                         
           Li N Li Li  N Li              
                  Li      Li             
             Li N    Li  N               
              Li    Li Li   Li           
                                         
                Li       Li              
                                         
                                         
                                         
                                         

Positions:
   0 Li     1.753189    1.012426    1.530029    ( 0.0000,  0.0000,  0.0000)
   1 Li    -0.000191    4.049369    1.530029    ( 0.0000,  0.0000,  0.0000)
   2 Li     5.259899    1.012426    1.530029    ( 0.0000,  0.0000,  0.0000)
   3 Li     3.506519    4.049369    1.530029    ( 0.0000,  0.0000,  0.0000)
   4 Li     1.749738    1.015482   13.243537    ( 0.0000,  0.0000,  0.0000)
   5 Li     0.005053    4.051924   13.303137    ( 0.0000,  0.0000,  0.0000)
   6 Li     5.261067    1.007035   13.302973    ( 0.0000,  0.0000,  0.0000)
   7 Li     3.499347    4.051719   13.226748    ( 0.0000,  0.0000,  0.0000)
   8 Li     3.534312   -0.042279   15.673131    ( 0.0000,  0.0000,  0.0000)
   9 Li     1.682619    3.058598   15.057603    ( 0.0000,  0.0000,  0.0000)
  10 Li     6.981420    0.027863   15.120341    ( 0.0000,  0.0000,  0.0000)
  11 Li     5.326917    3.026889   15.527700    ( 0.0000,  0.0000,  0.0000)
  12 Li    -0.056424    2.031910   15.673905    ( 0.0000,  0.0000,  0.0000)
  13 Li    -1.714259    5.050522   15.109916    ( 0.0000,  0.0000,  0.0000)
  14 Li     3.557456    1.973710   15.043031    ( 0.0000,  0.0000,  0.0000)
  15 Li     1.711484    5.112721   15.548522    ( 0.0000,  0.0000,  0.0000)
  16 Li     3.506465    0.000182    3.465092    ( 0.0000,  0.0000,  0.0000)
  17 Li     1.753085    3.037125    3.465092    ( 0.0000,  0.0000,  0.0000)
  18 Li     7.013175    0.000182    3.465092    ( 0.0000,  0.0000,  0.0000)
  19 Li     5.259795    3.037125    3.465092    ( 0.0000,  0.0000,  0.0000)
  20 Li    -0.000262    2.024791    3.465092    ( 0.0000,  0.0000,  0.0000)
  21 Li    -1.753642    5.061734    3.465092    ( 0.0000,  0.0000,  0.0000)
  22 Li     3.506448    2.024791    3.465092    ( 0.0000,  0.0000,  0.0000)
  23 Li     1.753068    5.061734    3.465092    ( 0.0000,  0.0000,  0.0000)
  24 Li     1.753084    1.012487    5.431887    ( 0.0000,  0.0000,  0.0000)
  25 Li    -0.000296    4.049430    5.431887    ( 0.0000,  0.0000,  0.0000)
  26 Li     5.259794    1.012487    5.431887    ( 0.0000,  0.0000,  0.0000)
  27 Li     3.506414    4.049430    5.431887    ( 0.0000,  0.0000,  0.0000)
  28 Li     3.506429    0.000182    7.378027    ( 0.0000,  0.0000,  0.0000)
  29 Li     1.753049    3.037125    7.378027    ( 0.0000,  0.0000,  0.0000)
  30 Li     7.013139    0.000182    7.378027    ( 0.0000,  0.0000,  0.0000)
  31 Li     5.259759    3.037125    7.378027    ( 0.0000,  0.0000,  0.0000)
  32 Li    -0.000297    2.024791    7.378027    ( 0.0000,  0.0000,  0.0000)
  33 Li    -1.753677    5.061734    7.378027    ( 0.0000,  0.0000,  0.0000)
  34 Li     3.506413    2.024791    7.378027    ( 0.0000,  0.0000,  0.0000)
  35 Li     1.753033    5.061734    7.378027    ( 0.0000,  0.0000,  0.0000)
  36 Li     1.752736    1.013521    9.335713    ( 0.0000,  0.0000,  0.0000)
  37 Li     0.000890    4.049731    9.352984    ( 0.0000,  0.0000,  0.0000)
  38 Li     5.259676    1.011594    9.352986    ( 0.0000,  0.0000,  0.0000)
  39 Li     3.504200    4.050049    9.332435    ( 0.0000,  0.0000,  0.0000)
  40 Li     3.506458   -0.000537   11.343397    ( 0.0000,  0.0000,  0.0000)
  41 Li     1.750080    3.038106   11.265786    ( 0.0000,  0.0000,  0.0000)
  42 Li     7.011468    0.002229   11.267371    ( 0.0000,  0.0000,  0.0000)
  43 Li     5.261499    3.037166   11.324886    ( 0.0000,  0.0000,  0.0000)
  44 Li    -0.003602    2.026016   11.343382    ( 0.0000,  0.0000,  0.0000)
  45 Li    -1.752670    5.061833   11.267978    ( 0.0000,  0.0000,  0.0000)
  46 Li     3.507491    2.023864   11.266395    ( 0.0000,  0.0000,  0.0000)
  47 Li     1.750213    5.064423   11.323771    ( 0.0000,  0.0000,  0.0000)
  48 N      1.753084    1.012487    3.439048    ( 0.0000,  0.0000,  0.0000)
  49 N     -0.000296    4.049430    3.439048    ( 0.0000,  0.0000,  0.0000)
  50 N      5.259794    1.012487    3.439048    ( 0.0000,  0.0000,  0.0000)
  51 N      3.506414    4.049430    3.439048    ( 0.0000,  0.0000,  0.0000)
  52 N      1.753031    1.012517    7.360963    ( 0.0000,  0.0000,  0.0000)
  53 N     -0.000349    4.049460    7.360963    ( 0.0000,  0.0000,  0.0000)
  54 N      5.259741    1.012517    7.360963    ( 0.0000,  0.0000,  0.0000)
  55 N      3.506361    4.049460    7.360963    ( 0.0000,  0.0000,  0.0000)
  56 N      1.751994    1.013043   11.270383    ( 0.0000,  0.0000,  0.0000)
  57 N     -0.001164    4.050301   11.307808    ( 0.0000,  0.0000,  0.0000)
  58 N      5.259233    1.012796   11.307781    ( 0.0000,  0.0000,  0.0000)
  59 N      3.505306    4.050378   11.261132    ( 0.0000,  0.0000,  0.0000)
  60 N      1.745042    1.004431   15.184828    ( 0.0000,  0.0000,  0.0000)
  61 N     -0.014659    4.057528   15.284966    ( 0.0000,  0.0000,  0.0000)
  62 N      5.268635    1.007298   15.284601    ( 0.0000,  0.0000,  0.0000)
  63 N      3.513676    4.063748   15.148325    ( 0.0000,  0.0000,  0.0000)
  64 Li     2.773426    2.720071   17.155535    ( 0.0000,  0.0000,  0.0000)

Unit cell:
           periodic     x           y           z      points  spacing
  1. axis:    yes    7.013420    0.000000    0.000000    40     0.1518
  2. axis:    yes   -3.506760    6.073886    0.000000    40     0.1518
  3. axis:    yes    0.000000    0.000000   29.936001   160     0.1871

  Lengths:   7.013420   7.013520  29.936001
  Angles:   90.000000  90.000000 120.000000

Effective grid spacing dv^(1/3) = 0.1708

                     log10-error:    total        iterations:
           time      wfs    density  energy       fermi  poisson
iter:   1  09:24:48                -274.693268    4             
iter:   2  09:25:29  -0.99  -0.51  -262.248377    5             
iter:   3  09:26:10  -0.41  -0.57  -278.488982    36            
iter:   4  09:26:51  -1.86  -0.52  -251.059462    35            
iter:   5  09:27:32  -2.71  -0.72  -248.369385    4             
iter:   6  09:28:13  -1.38  -0.73  -245.858699    4             
iter:   7  09:28:55  -1.43  -0.79  -240.094174    32            
iter:   8  09:29:36  -1.61  -0.89  -237.874716    32            
iter:   9  09:30:17  -2.11  -0.96  -238.526208    4             
iter:  10  09:30:59  -1.94  -0.91  -237.529805    4             
iter:  11  09:31:40  -1.52  -0.92  -246.515546    36            
iter:  12  09:32:22  -1.92  -0.84  -235.783927    35            
iter:  13  09:33:03  -2.15  -1.02  -248.435739    32            
iter:  14  09:33:44  -2.08  -0.85  -245.400748    27            
iter:  15  09:34:26  -3.19  -0.90  -246.612278    4             
iter:  16  09:35:08  -1.80  -0.90  -235.682915    34            
iter:  17  09:35:49  -2.04  -1.13  -234.936836    4             
iter:  18  09:36:30  -1.57  -1.26  -234.449384    35            
iter:  19  09:37:11  -2.92  -1.53  -234.238099    5             
iter:  20  09:37:52  -2.72  -1.59  -234.321330    4             
iter:  21  09:38:33  -4.03  -1.61  -234.170946    4             
iter:  22  09:39:14  -2.98  -1.72  -234.139369    4             
iter:  23  09:39:56  -3.64  -1.89  -234.138340    3             
iter:  24  09:40:37  -3.04  -1.95  -234.132759    3             
iter:  25  09:41:17  -4.57  -2.28  -234.130804    3             
iter:  26  09:41:58  -5.35  -2.30  -234.128069    2             
iter:  27  09:42:39  -3.67  -2.33  -234.126006    3             
iter:  28  09:43:20  -4.09  -2.46  -234.123016    3             
iter:  29  09:44:01  -4.56  -2.49  -234.123761    3             
iter:  30  09:44:42  -4.97  -2.65  -234.123595    3             
iter:  31  09:45:24  -4.97  -2.79  -234.125458    2             
iter:  32  09:46:05  -5.53  -2.91  -234.123486    2             
iter:  33  09:46:46  -5.24  -2.91  -234.125048    3             
iter:  34  09:47:29  -6.38  -3.18  -234.123847    2             
iter:  35  09:48:10  -6.23  -3.32  -234.123685    2             
iter:  36  09:48:52  -6.18  -3.45  -234.123845    2             
iter:  37  09:49:33  -6.98  -3.76  -234.123839    2             
iter:  38  09:50:14  -7.76  -3.78  -234.123861    1             
iter:  39  09:50:55  -7.88  -3.81  -234.123777    2             
iter:  40  09:51:36  -7.77  -3.84  -234.123863    2             
iter:  41  09:52:18  -8.18  -4.01  -234.123863    2             

Converged after 41 iterations.

Dipole moment: (-2.778017, 1.579987, -11.358208) |e|*Ang

Energy contributions relative to reference atoms: (reference = -33644.147259)

Kinetic:       +256.584605
Potential:     -189.092328
External:        +0.000000
XC:            -300.308984
Entropy (-ST):   -0.075886
Local:           -1.269213
--------------------------
Free energy:   -234.161806
Extrapolated:  -234.123863

Fermi level: -0.26992

Showing only first 2 kpts
 Kpt  Band  Eigenvalues  Occupancy
  0    62     -0.53805    0.07963
  0    63     -0.07264    0.00152
  0    64     -0.02641    0.00061
  0    65      0.18536    0.00001

  1    62     -0.58816    0.15973
  1    63     -0.31410    0.11321
  1    64     -0.15514    0.01464
  1    65      0.35556    0.00000



Forces in eV/Ang:
  0 Li   -0.00007    0.00006   -0.04560
  1 Li   -0.00007    0.00005   -0.04576
  2 Li   -0.00008    0.00005   -0.04576
  3 Li   -0.00008    0.00004   -0.04558
  4 Li   -0.00842   -0.01301    0.02045
  5 Li   -0.03057    0.01376    0.13740
  6 Li    0.02366   -0.00512    0.13704
  7 Li    0.01334    0.00743    0.00999
  8 Li   -0.57855    0.42864    0.13675
  9 Li    0.05522   -0.05428   -0.53238
 10 Li    0.26367   -0.13790    0.16237
 11 Li   -0.72262    0.26222   -0.03740
 12 Li    0.68635   -0.30268    0.15417
 13 Li   -0.26580    0.15556    0.16427
 14 Li   -0.07631    0.03029   -0.54934
 15 Li    0.55364   -0.46271   -0.03597
 16 Li    0.00006   -0.00015   -0.04062
 17 Li   -0.00004   -0.00008   -0.04071
 18 Li   -0.00005   -0.00010   -0.04078
 19 Li    0.00005   -0.00014   -0.04066
 20 Li   -0.00012    0.00010   -0.04062
 21 Li   -0.00003    0.00004   -0.04081
 22 Li   -0.00002    0.00005   -0.04075
 23 Li   -0.00011    0.00009   -0.04058
 24 Li    0.00004    0.00017   -0.04646
 25 Li    0.00020   -0.00002   -0.04305
 26 Li   -0.00005   -0.00006   -0.04306
 27 Li   -0.00021   -0.00008   -0.04703
 28 Li    0.00231   -0.00151    0.00932
 29 Li   -0.00315    0.00132    0.00116
 30 Li   -0.00247    0.00193    0.00339
 31 Li    0.00267   -0.00143    0.01044
 32 Li   -0.00323    0.00189    0.00932
 33 Li    0.00261   -0.00138    0.00538
 34 Li    0.00282   -0.00147    0.00308
 35 Li   -0.00335    0.00213    0.00654
 36 Li   -0.00123   -0.00437    0.00231
 37 Li   -0.00604    0.00084    0.01615
 38 Li    0.00028    0.00276    0.01592
 39 Li    0.00642    0.00126   -0.01104
 40 Li   -0.00646    0.01171    0.00974
 41 Li    0.00708   -0.00040    0.01773
 42 Li    0.00149   -0.00547   -0.00362
 43 Li   -0.01869    0.00314    0.02066
 44 Li    0.01602   -0.00046    0.00942
 45 Li   -0.00591   -0.00125    0.00099
 46 Li   -0.00496    0.00652    0.02109
 47 Li    0.01061   -0.01472    0.00872
 48 N    -0.00026    0.00005    0.07315
 49 N    -0.00024    0.00018    0.08532
 50 N    -0.00021    0.00025    0.08531
 51 N    -0.00005    0.00031    0.07263
 52 N     0.00018    0.00121    0.00496
 53 N     0.00149   -0.00016    0.06517
 54 N    -0.00031   -0.00074    0.06536
 55 N    -0.00191   -0.00030   -0.00889
 56 N    -0.00575   -0.00663   -0.01628
 57 N     0.00352    0.00081   -0.04046
 58 N     0.00006   -0.00322   -0.03881
 59 N     0.00236    0.00888   -0.03808
 60 N     0.37779    0.63658    0.26218
 61 N     0.34894   -0.13448    0.02417
 62 N    -0.28325    0.19495    0.04567
 63 N    -0.43919   -0.76772    0.62984
 64 Li    0.08182    0.14971   -0.62288

System changes: positions 

Initializing position-dependent things.

Density initialized from wave functions
                                         
                                         
                                         
                                         
                                         
                    Li                   
           Li      Li                    
              N        N  Li             
             Li   Li Li                  
              LiN   Li LiN               
                            Li           
           Li   Li Li    Li              
              N   Li   N  Li             
             Li      Li                  
              LiN   Li LiN  Li           
                                         
           Li N Li Li  N Li              
                  Li      Li             
             Li N    Li  N               
              Li    Li Li   Li           
                                         
           Li N Li Li  N Li              
                  Li      Li             
             Li N    Li  N               
              Li    Li Li   Li           
                                         
                Li       Li              
                                         
                                         
                                         
                                         

Positions:
   0 Li     1.753189    1.012426    1.530029    ( 0.0000,  0.0000,  0.0000)
   1 Li    -0.000191    4.049369    1.530029    ( 0.0000,  0.0000,  0.0000)
   2 Li     5.259899    1.012426    1.530029    ( 0.0000,  0.0000,  0.0000)
   3 Li     3.506519    4.049369    1.530029    ( 0.0000,  0.0000,  0.0000)
   4 Li     1.749629    1.015299   13.243614    ( 0.0000,  0.0000,  0.0000)
   5 Li     0.004604    4.052118   13.305097    ( 0.0000,  0.0000,  0.0000)
   6 Li     5.261402    1.006982   13.304928    ( 0.0000,  0.0000,  0.0000)
   7 Li     3.499550    4.051814   13.227101    ( 0.0000,  0.0000,  0.0000)
   8 Li     3.526184   -0.036273   15.673576    ( 0.0000,  0.0000,  0.0000)
   9 Li     1.683537    3.058156   15.049859    ( 0.0000,  0.0000,  0.0000)
  10 Li     6.985076    0.025700   15.122633    ( 0.0000,  0.0000,  0.0000)
  11 Li     5.316472    3.030732   15.528706    ( 0.0000,  0.0000,  0.0000)
  12 Li    -0.046774    2.027638   15.674603    ( 0.0000,  0.0000,  0.0000)
  13 Li    -1.718171    5.052548   15.112262    ( 0.0000,  0.0000,  0.0000)
  14 Li     3.556597    1.974432   15.035070    ( 0.0000,  0.0000,  0.0000)
  15 Li     1.719529    5.106060   15.549489    ( 0.0000,  0.0000,  0.0000)
  16 Li     3.506465    0.000182    3.465092    ( 0.0000,  0.0000,  0.0000)
  17 Li     1.753085    3.037125    3.465092    ( 0.0000,  0.0000,  0.0000)
  18 Li     7.013175    0.000182    3.465092    ( 0.0000,  0.0000,  0.0000)
  19 Li     5.259795    3.037125    3.465092    ( 0.0000,  0.0000,  0.0000)
  20 Li    -0.000262    2.024791    3.465092    ( 0.0000,  0.0000,  0.0000)
  21 Li    -1.753642    5.061734    3.465092    ( 0.0000,  0.0000,  0.0000)
  22 Li     3.506448    2.024791    3.465092    ( 0.0000,  0.0000,  0.0000)
  23 Li     1.753068    5.061734    3.465092    ( 0.0000,  0.0000,  0.0000)
  24 Li     1.753084    1.012487    5.431887    ( 0.0000,  0.0000,  0.0000)
  25 Li    -0.000296    4.049430    5.431887    ( 0.0000,  0.0000,  0.0000)
  26 Li     5.259794    1.012487    5.431887    ( 0.0000,  0.0000,  0.0000)
  27 Li     3.506414    4.049430    5.431887    ( 0.0000,  0.0000,  0.0000)
  28 Li     3.506429    0.000182    7.378027    ( 0.0000,  0.0000,  0.0000)
  29 Li     1.753049    3.037125    7.378027    ( 0.0000,  0.0000,  0.0000)
  30 Li     7.013139    0.000182    7.378027    ( 0.0000,  0.0000,  0.0000)
  31 Li     5.259759    3.037125    7.378027    ( 0.0000,  0.0000,  0.0000)
  32 Li    -0.000297    2.024791    7.378027    ( 0.0000,  0.0000,  0.0000)
  33 Li    -1.753677    5.061734    7.378027    ( 0.0000,  0.0000,  0.0000)
  34 Li     3.506413    2.024791    7.378027    ( 0.0000,  0.0000,  0.0000)
  35 Li     1.753033    5.061734    7.378027    ( 0.0000,  0.0000,  0.0000)
  36 Li     1.752720    1.013459    9.335686    ( 0.0000,  0.0000,  0.0000)
  37 Li     0.000801    4.049742    9.353216    ( 0.0000,  0.0000,  0.0000)
  38 Li     5.259678    1.011637    9.353214    ( 0.0000,  0.0000,  0.0000)
  39 Li     3.504295    4.050063    9.332332    ( 0.0000,  0.0000,  0.0000)
  40 Li     3.506373   -0.000374   11.343332    ( 0.0000,  0.0000,  0.0000)
  41 Li     1.750188    3.038111   11.266037    ( 0.0000,  0.0000,  0.0000)
  42 Li     7.011486    0.002141   11.267321    ( 0.0000,  0.0000,  0.0000)
  43 Li     5.261228    3.037215   11.325379    ( 0.0000,  0.0000,  0.0000)
  44 Li    -0.003377    2.026012   11.343313    ( 0.0000,  0.0000,  0.0000)
  45 Li    -1.752759    5.061807   11.267992    ( 0.0000,  0.0000,  0.0000)
  46 Li     3.507426    2.023967   11.266693    ( 0.0000,  0.0000,  0.0000)
  47 Li     1.750372    5.064212   11.324096    ( 0.0000,  0.0000,  0.0000)
  48 N      1.753084    1.012487    3.439048    ( 0.0000,  0.0000,  0.0000)
  49 N     -0.000296    4.049430    3.439048    ( 0.0000,  0.0000,  0.0000)
  50 N      5.259794    1.012487    3.439048    ( 0.0000,  0.0000,  0.0000)
  51 N      3.506414    4.049430    3.439048    ( 0.0000,  0.0000,  0.0000)
  52 N      1.753031    1.012517    7.360963    ( 0.0000,  0.0000,  0.0000)
  53 N     -0.000349    4.049460    7.360963    ( 0.0000,  0.0000,  0.0000)
  54 N      5.259741    1.012517    7.360963    ( 0.0000,  0.0000,  0.0000)
  55 N      3.506361    4.049460    7.360963    ( 0.0000,  0.0000,  0.0000)
  56 N      1.751913    1.012949   11.270017    ( 0.0000,  0.0000,  0.0000)
  57 N     -0.001114    4.050313   11.307226    ( 0.0000,  0.0000,  0.0000)
  58 N      5.259235    1.012751   11.307223    ( 0.0000,  0.0000,  0.0000)
  59 N      3.505342    4.050505   11.260709    ( 0.0000,  0.0000,  0.0000)
  60 N      1.750417    1.013479   15.188157    ( 0.0000,  0.0000,  0.0000)
  61 N     -0.009673    4.055630   15.285309    ( 0.0000,  0.0000,  0.0000)
  62 N      5.264618    1.010089   15.285251    ( 0.0000,  0.0000,  0.0000)
  63 N      3.507382    4.052745   15.157782    ( 0.0000,  0.0000,  0.0000)
  64 Li     2.771761    2.717470   17.146915    ( 0.0000,  0.0000,  0.0000)

Unit cell:
           periodic     x           y           z      points  spacing
  1. axis:    yes    7.013420    0.000000    0.000000    40     0.1518
  2. axis:    yes   -3.506760    6.073886    0.000000    40     0.1518
  3. axis:    yes    0.000000    0.000000   29.936001   160     0.1871

  Lengths:   7.013420   7.013520  29.936001
  Angles:   90.000000  90.000000 120.000000

Effective grid spacing dv^(1/3) = 0.1708

                     log10-error:    total        iterations:
           time      wfs    density  energy       fermi  poisson
iter:   1  10:02:39  -3.29         -234.202854    3             
iter:   2  10:03:20  -4.21  -2.48  -234.243122    3             
iter:   3  10:04:01  -5.06  -2.26  -234.202760    3             
iter:   4  10:04:43  -4.39  -2.75  -234.198234    3             
iter:   5  10:05:25  -5.24  -2.53  -234.200400    3             
iter:   6  10:06:06  -5.25  -2.96  -234.196159    3             
iter:   7  10:06:47  -5.23  -2.74  -234.197523    2             
iter:   8  10:07:29  -5.94  -3.56  -234.197902    2             
iter:   9  10:08:10  -6.49  -3.50  -234.197762    2             
iter:  10  10:08:51  -6.00  -3.62  -234.197424    2             
iter:  11  10:09:32  -7.02  -3.98  -234.197503    2             
iter:  12  10:10:14  -7.31  -4.00  -234.197444    2             

Converged after 12 iterations.

Dipole moment: (-2.758223, 1.570265, -11.359227) |e|*Ang

Energy contributions relative to reference atoms: (reference = -33644.147259)

Kinetic:       +256.296115
Potential:     -188.882849
External:        +0.000000
XC:            -300.280605
Entropy (-ST):   -0.075863
Local:           -1.292174
--------------------------
Free energy:   -234.235376
Extrapolated:  -234.197444

Fermi level: -0.27132

Showing only first 2 kpts
 Kpt  Band  Eigenvalues  Occupancy
  0    62     -0.53329    0.07958
  0    63     -0.06577    0.00129
  0    64     -0.03451    0.00070
  0    65      0.18129    0.00001

  1    62     -0.58472    0.15970
  1    63     -0.31170    0.11066
  1    64     -0.16048    0.01572
  1    65      0.35304    0.00000



Forces in eV/Ang:
  0 Li   -0.00007    0.00006   -0.04706
  1 Li   -0.00007    0.00005   -0.04721
  2 Li   -0.00008    0.00005   -0.04721
  3 Li   -0.00008    0.00004   -0.04703
  4 Li   -0.00823   -0.01249    0.02856
  5 Li   -0.03220    0.01516    0.12197
  6 Li    0.02614   -0.00676    0.12253
  7 Li    0.01220    0.00687    0.04118
  8 Li   -0.49015    0.37757    0.14074
  9 Li    0.04972   -0.05221   -0.51603
 10 Li    0.21724   -0.11490    0.16907
 11 Li   -0.61381    0.21643   -0.01615
 12 Li    0.59261   -0.24829    0.15677
 13 Li   -0.21911    0.12757    0.17145
 14 Li   -0.07202    0.02388   -0.53174
 15 Li    0.46659   -0.39901   -0.01590
 16 Li    0.00006   -0.00016   -0.04037
 17 Li   -0.00005   -0.00008   -0.04049
 18 Li   -0.00005   -0.00010   -0.04054
 19 Li    0.00006   -0.00014   -0.04041
 20 Li   -0.00013    0.00010   -0.04038
 21 Li   -0.00003    0.00004   -0.04058
 22 Li   -0.00002    0.00005   -0.04052
 23 Li   -0.00012    0.00010   -0.04034
 24 Li    0.00005    0.00019   -0.04756
 25 Li    0.00021   -0.00003   -0.04405
 26 Li   -0.00007   -0.00005   -0.04406
 27 Li   -0.00022   -0.00010   -0.04815
 28 Li    0.00248   -0.00153    0.00910
 29 Li   -0.00330    0.00136    0.00088
 30 Li   -0.00265    0.00208    0.00288
 31 Li    0.00282   -0.00159    0.01009
 32 Li   -0.00332    0.00203    0.00910
 33 Li    0.00283   -0.00143    0.00480
 34 Li    0.00289   -0.00159    0.00272
 35 Li   -0.00356    0.00216    0.00633
 36 Li   -0.00108   -0.00405    0.00134
 37 Li   -0.00575    0.00073    0.01333
 38 Li    0.00016    0.00276    0.01319
 39 Li    0.00612    0.00104   -0.01153
 40 Li   -0.00435    0.00947    0.00924
 41 Li    0.00494   -0.00020    0.01565
 42 Li    0.00001   -0.00341   -0.00543
 43 Li   -0.01437    0.00154    0.01908
 44 Li    0.01269    0.00038    0.00881
 45 Li   -0.00331   -0.00135   -0.00107
 46 Li   -0.00376    0.00460    0.01874
 47 Li    0.00740   -0.01188    0.00773
 48 N    -0.00023    0.00010    0.06915
 49 N    -0.00024    0.00018    0.08126
 50 N    -0.00019    0.00023    0.08122
 51 N    -0.00010    0.00025    0.06852
 52 N    -0.00000    0.00087    0.01180
 53 N     0.00126   -0.00002    0.07184
 54 N    -0.00011   -0.00082    0.07207
 55 N    -0.00167    0.00004   -0.00185
 56 N    -0.00331   -0.00321   -0.00960
 57 N     0.00409   -0.00027   -0.03135
 58 N    -0.00159   -0.00164   -0.02962
 59 N     0.00091    0.00501   -0.02560
 60 N     0.32024    0.53706    0.22712
 61 N     0.25979   -0.10134    0.01403
 62 N    -0.21187    0.14500    0.03368
 63 N    -0.37926   -0.66435    0.54853
 64 Li    0.08057    0.14834   -0.63970

System changes: positions 

Initializing position-dependent things.

Density initialized from wave functions
                                         
                                         
                                         
                                         
                                         
                    Li                   
           Li      Li                    
              N       N   Li             
             Li   Li Li                  
              LiN   Li LiN  Li           
                                         
           Li   Li Li    Li              
              N   Li   N  Li             
             Li      Li                  
              LiN   Li LiN  Li           
                                         
           Li N Li Li  N Li              
                  Li      Li             
             Li N    Li  N               
              Li    Li Li   Li           
           Li      Li                    
              N Li     N Li              
                  Li      Li             
             Li N    Li  N               
              Li    Li Li   Li           
                                         
                Li       Li              
                                         
                                         
                                         
                                         

Positions:
   0 Li     1.753189    1.012426    1.530029    ( 0.0000,  0.0000,  0.0000)
   1 Li    -0.000191    4.049369    1.530029    ( 0.0000,  0.0000,  0.0000)
   2 Li     5.259899    1.012426    1.530029    ( 0.0000,  0.0000,  0.0000)
   3 Li     3.506519    4.049369    1.530029    ( 0.0000,  0.0000,  0.0000)
   4 Li     1.748763    1.013865   13.245241    ( 0.0000,  0.0000,  0.0000)
   5 Li     0.000773    4.053851   13.319305    ( 0.0000,  0.0000,  0.0000)
   6 Li     5.264403    1.006354   13.319196    ( 0.0000,  0.0000,  0.0000)
   7 Li     3.501072    4.052537   13.233379    ( 0.0000,  0.0000,  0.0000)
   8 Li     3.469910    0.006961   15.678144    ( 0.0000,  0.0000,  0.0000)
   9 Li     1.690369    3.054669   14.988810    ( 0.0000,  0.0000,  0.0000)
  10 Li     7.009669    0.010784   15.142020    ( 0.0000,  0.0000,  0.0000)
  11 Li     5.243754    3.056861   15.538767    ( 0.0000,  0.0000,  0.0000)
  12 Li     0.021344    1.998980   15.681070    ( 0.0000,  0.0000,  0.0000)
  13 Li    -1.744698    5.065995   15.132126    ( 0.0000,  0.0000,  0.0000)
  14 Li     3.549984    1.979507   14.972397    ( 0.0000,  0.0000,  0.0000)
  15 Li     1.775194    5.059054   15.559117    ( 0.0000,  0.0000,  0.0000)
  16 Li     3.506465    0.000182    3.465092    ( 0.0000,  0.0000,  0.0000)
  17 Li     1.753085    3.037125    3.465092    ( 0.0000,  0.0000,  0.0000)
  18 Li     7.013175    0.000182    3.465092    ( 0.0000,  0.0000,  0.0000)
  19 Li     5.259795    3.037125    3.465092    ( 0.0000,  0.0000,  0.0000)
  20 Li    -0.000262    2.024791    3.465092    ( 0.0000,  0.0000,  0.0000)
  21 Li    -1.753642    5.061734    3.465092    ( 0.0000,  0.0000,  0.0000)
  22 Li     3.506448    2.024791    3.465092    ( 0.0000,  0.0000,  0.0000)
  23 Li     1.753068    5.061734    3.465092    ( 0.0000,  0.0000,  0.0000)
  24 Li     1.753084    1.012487    5.431887    ( 0.0000,  0.0000,  0.0000)
  25 Li    -0.000296    4.049430    5.431887    ( 0.0000,  0.0000,  0.0000)
  26 Li     5.259794    1.012487    5.431887    ( 0.0000,  0.0000,  0.0000)
  27 Li     3.506414    4.049430    5.431887    ( 0.0000,  0.0000,  0.0000)
  28 Li     3.506429    0.000182    7.378027    ( 0.0000,  0.0000,  0.0000)
  29 Li     1.753049    3.037125    7.378027    ( 0.0000,  0.0000,  0.0000)
  30 Li     7.013139    0.000182    7.378027    ( 0.0000,  0.0000,  0.0000)
  31 Li     5.259759    3.037125    7.378027    ( 0.0000,  0.0000,  0.0000)
  32 Li    -0.000297    2.024791    7.378027    ( 0.0000,  0.0000,  0.0000)
  33 Li    -1.753677    5.061734    7.378027    ( 0.0000,  0.0000,  0.0000)
  34 Li     3.506413    2.024791    7.378027    ( 0.0000,  0.0000,  0.0000)
  35 Li     1.753033    5.061734    7.378027    ( 0.0000,  0.0000,  0.0000)
  36 Li     1.752610    1.012997    9.335385    ( 0.0000,  0.0000,  0.0000)
  37 Li     0.000112    4.049821    9.354779    ( 0.0000,  0.0000,  0.0000)
  38 Li     5.259683    1.011983    9.354760    ( 0.0000,  0.0000,  0.0000)
  39 Li     3.505035    4.050158    9.331424    ( 0.0000,  0.0000,  0.0000)
  40 Li     3.505912    0.000705   11.342845    ( 0.0000,  0.0000,  0.0000)
  41 Li     1.750815    3.038164   11.267845    ( 0.0000,  0.0000,  0.0000)
  42 Li     7.011463    0.001669   11.266704    ( 0.0000,  0.0000,  0.0000)
  43 Li     5.259518    3.037433   11.329115    ( 0.0000,  0.0000,  0.0000)
  44 Li    -0.001914    2.026067   11.342774    ( 0.0000,  0.0000,  0.0000)
  45 Li    -1.753191    5.061596   11.267871    ( 0.0000,  0.0000,  0.0000)
  46 Li     3.507028    2.024577   11.268848    ( 0.0000,  0.0000,  0.0000)
  47 Li     1.751299    5.062807   11.326537    ( 0.0000,  0.0000,  0.0000)
  48 N      1.753084    1.012487    3.439048    ( 0.0000,  0.0000,  0.0000)
  49 N     -0.000296    4.049430    3.439048    ( 0.0000,  0.0000,  0.0000)
  50 N      5.259794    1.012487    3.439048    ( 0.0000,  0.0000,  0.0000)
  51 N      3.506414    4.049430    3.439048    ( 0.0000,  0.0000,  0.0000)
  52 N      1.753031    1.012517    7.360963    ( 0.0000,  0.0000,  0.0000)
  53 N     -0.000349    4.049460    7.360963    ( 0.0000,  0.0000,  0.0000)
  54 N      5.259741    1.012517    7.360963    ( 0.0000,  0.0000,  0.0000)
  55 N      3.506361    4.049460    7.360963    ( 0.0000,  0.0000,  0.0000)
  56 N      1.751530    1.012564   11.267841    ( 0.0000,  0.0000,  0.0000)
  57 N     -0.000637    4.050288   11.303522    ( 0.0000,  0.0000,  0.0000)
  58 N      5.259065    1.012563   11.303719    ( 0.0000,  0.0000,  0.0000)
  59 N      3.505470    4.051103   11.258633    ( 0.0000,  0.0000,  0.0000)
  60 N      1.787775    1.076073   15.211832    ( 0.0000,  0.0000,  0.0000)
  61 N      0.020851    4.043808   15.286956    ( 0.0000,  0.0000,  0.0000)
  62 N      5.239870    1.027116   15.289181    ( 0.0000,  0.0000,  0.0000)
  63 N      3.462968    3.974963   15.224845    ( 0.0000,  0.0000,  0.0000)
  64 Li     2.759221    2.698041   17.074916    ( 0.0000,  0.0000,  0.0000)

Unit cell:
           periodic     x           y           z      points  spacing
  1. axis:    yes    7.013420    0.000000    0.000000    40     0.1518
  2. axis:    yes   -3.506760    6.073886    0.000000    40     0.1518
  3. axis:    yes    0.000000    0.000000   29.936001   160     0.1871

  Lengths:   7.013420   7.013520  29.936001
  Angles:   90.000000  90.000000 120.000000

Effective grid spacing dv^(1/3) = 0.1708

                     log10-error:    total        iterations:
           time      wfs    density  energy       fermi  poisson
iter:   1  10:12:12  -1.58         -234.829204    3             
iter:   2  10:12:52  -2.72  -1.75  -235.042265    4             
iter:   3  10:13:34  -3.62  -1.66  -234.638029    3             
iter:   4  10:14:14  -3.09  -1.95  -234.715654    4             
iter:   5  10:14:56  -3.61  -1.76  -234.625899    4             
iter:   6  10:15:38  -3.14  -1.97  -234.603591    3             
iter:   7  10:16:20  -3.29  -2.04  -234.501760    4             
iter:   8  10:17:01  -4.08  -2.33  -234.478713    3             
iter:   9  10:17:43  -4.99  -2.33  -234.477477    3             
iter:  10  10:18:25  -3.81  -2.65  -234.507115    4             
iter:  11  10:19:07  -4.61  -2.33  -234.471486    2             
iter:  12  10:19:48  -5.33  -3.07  -234.471321    2             
iter:  13  10:20:29  -5.28  -3.16  -234.471497    2             
iter:  14  10:21:10  -5.19  -3.24  -234.470509    3             
iter:  15  10:21:52  -5.31  -3.22  -234.471235    2             
iter:  16  10:22:35  -5.91  -3.54  -234.470780    2             
iter:  17  10:23:17  -6.96  -3.70  -234.470835    2             
iter:  18  10:23:57  -6.73  -3.75  -234.470626    2             
iter:  19  10:24:39  -7.11  -3.71  -234.470852    2             
iter:  20  10:25:21  -7.91  -3.93  -234.470857    2             
iter:  21  10:26:02  -6.24  -3.98  -234.470841    2             
iter:  22  10:26:44  -7.73  -4.12  -234.470914    2             

Converged after 22 iterations.

Dipole moment: (-2.534847, 1.455649, -11.377427) |e|*Ang

Energy contributions relative to reference atoms: (reference = -33644.147259)

Kinetic:       +255.337994
Potential:     -188.276147
External:        +0.000000
XC:            -300.206194
Entropy (-ST):   -0.075850
Local:           -1.288641
--------------------------
Free energy:   -234.508839
Extrapolated:  -234.470914

Fermi level: -0.27953

Showing only first 2 kpts
 Kpt  Band  Eigenvalues  Occupancy
  0    62     -0.51432    0.07928
  0    63     -0.10147    0.00221
  0    64     -0.01700    0.00042
  0    65      0.15863    0.00001

  1    62     -0.57226    0.15954
  1    63     -0.30805    0.10222
  1    64     -0.18945    0.02266
  1    65      0.34007    0.00000



Forces in eV/Ang:
  0 Li   -0.00007    0.00005   -0.04979
  1 Li   -0.00007    0.00005   -0.04991
  2 Li   -0.00007    0.00005   -0.04991
  3 Li   -0.00008    0.00004   -0.04979
  4 Li   -0.01062   -0.01534    0.06576
  5 Li   -0.05348    0.03001    0.01481
  6 Li    0.05331   -0.02468    0.02171
  7 Li    0.00276    0.00245    0.17516
  8 Li    0.08122    0.07419    0.17484
  9 Li   -0.04337   -0.01617   -0.39998
 10 Li   -0.08867    0.04652    0.18650
 11 Li    0.05073   -0.11380    0.12320
 12 Li    0.01744    0.11310    0.18373
 13 Li    0.09249   -0.04915    0.19100
 14 Li    0.00531   -0.05669   -0.40542
 15 Li   -0.10746   -0.02859    0.11579
 16 Li    0.00014   -0.00017   -0.04130
 17 Li   -0.00011   -0.00005   -0.04153
 18 Li   -0.00012   -0.00003   -0.04158
 19 Li    0.00013   -0.00021   -0.04135
 20 Li   -0.00018    0.00017   -0.04130
 21 Li    0.00007   -0.00000   -0.04159
 22 Li    0.00003   -0.00000   -0.04155
 23 Li   -0.00022    0.00012   -0.04130
 24 Li    0.00004    0.00014   -0.05137
 25 Li    0.00014   -0.00002   -0.04717
 26 Li   -0.00006   -0.00003   -0.04719
 27 Li   -0.00015   -0.00008   -0.05213
 28 Li    0.00371   -0.00221    0.00867
 29 Li   -0.00483    0.00190   -0.00017
 30 Li   -0.00390    0.00313    0.00090
 31 Li    0.00438   -0.00250    0.00873
 32 Li   -0.00433    0.00273    0.00872
 33 Li    0.00434   -0.00179    0.00216
 34 Li    0.00387   -0.00268    0.00093
 35 Li   -0.00507    0.00293    0.00631
 36 Li   -0.00029   -0.00224   -0.01043
 37 Li   -0.00379    0.00003   -0.01147
 38 Li   -0.00059    0.00266   -0.01090
 39 Li    0.00424   -0.00012   -0.01692
 40 Li    0.00963   -0.00509    0.01026
 41 Li   -0.00825    0.00181    0.00762
 42 Li   -0.00932    0.00858   -0.01147
 43 Li    0.01281   -0.00838    0.01308
 44 Li   -0.00919    0.00609    0.00888
 45 Li    0.01225   -0.00243   -0.00921
 46 Li    0.00443   -0.00692    0.00854
 47 Li   -0.01271    0.00608    0.00668
 48 N    -0.00009    0.00033    0.07559
 49 N    -0.00028    0.00019    0.08655
 50 N    -0.00016    0.00018    0.08679
 51 N    -0.00025   -0.00001    0.07680
 52 N     0.00017    0.00083    0.01996
 53 N     0.00085   -0.00010    0.07798
 54 N    -0.00028   -0.00041    0.07833
 55 N    -0.00125   -0.00028    0.00783
 56 N    -0.00315   -0.00704    0.04454
 57 N    -0.00738    0.00142    0.04427
 58 N     0.00391    0.00015    0.04638
 59 N     0.00643    0.00576    0.06521
 60 N    -0.09353   -0.17291    0.05647
 61 N    -0.25140    0.10960   -0.02962
 62 N     0.21482   -0.13999   -0.02498
 63 N     0.06564    0.11254    0.12905
 64 Li    0.06606    0.12772   -0.73265

System changes: positions 

Initializing position-dependent things.

Density initialized from wave functions
                                         
                                         
                                         
                                         
                                         
                    Li                   
           Li      Li                    
              N       N   Li             
             Li   Li Li                  
              LiN   Li LiN  Li           
                                         
           Li   Li Li    Li              
              N   Li   N  Li             
             Li      Li                  
              LiN   Li LiN  Li           
                                         
           Li N Li Li  N Li              
                  Li      Li             
             Li N    Li  N               
              Li    Li Li   Li           
           Li      Li                    
              N Li     N Li              
                  Li      Li             
             Li N    Li  N               
              Li    Li Li   Li           
                                         
                Li       Li              
                                         
                                         
                                         
                                         

Positions:
   0 Li     1.753189    1.012426    1.530029    ( 0.0000,  0.0000,  0.0000)
   1 Li    -0.000191    4.049369    1.530029    ( 0.0000,  0.0000,  0.0000)
   2 Li     5.259899    1.012426    1.530029    ( 0.0000,  0.0000,  0.0000)
   3 Li     3.506519    4.049369    1.530029    ( 0.0000,  0.0000,  0.0000)
   4 Li     1.748545    1.013523   13.246171    ( 0.0000,  0.0000,  0.0000)
   5 Li    -0.000335    4.054427   13.320684    ( 0.0000,  0.0000,  0.0000)
   6 Li     5.265427    1.005950   13.320679    ( 0.0000,  0.0000,  0.0000)
   7 Li     3.501246    4.052629   13.236529    ( 0.0000,  0.0000,  0.0000)
   8 Li     3.466535    0.011567   15.679758    ( 0.0000,  0.0000,  0.0000)
   9 Li     1.690415    3.054438   14.977926    ( 0.0000,  0.0000,  0.0000)
  10 Li     7.010342    0.010099   15.146264    ( 0.0000,  0.0000,  0.0000)
  11 Li     5.238357    3.057465   15.542711    ( 0.0000,  0.0000,  0.0000)
  12 Li     0.027161    1.998303   15.682971    ( 0.0000,  0.0000,  0.0000)
  13 Li    -1.745627    5.066266   15.136491    ( 0.0000,  0.0000,  0.0000)
  14 Li     3.549719    1.979356   14.961327    ( 0.0000,  0.0000,  0.0000)
  15 Li     1.778372    5.054705   15.562864    ( 0.0000,  0.0000,  0.0000)
  16 Li     3.506465    0.000182    3.465092    ( 0.0000,  0.0000,  0.0000)
  17 Li     1.753085    3.037125    3.465092    ( 0.0000,  0.0000,  0.0000)
  18 Li     7.013175    0.000182    3.465092    ( 0.0000,  0.0000,  0.0000)
  19 Li     5.259795    3.037125    3.465092    ( 0.0000,  0.0000,  0.0000)
  20 Li    -0.000262    2.024791    3.465092    ( 0.0000,  0.0000,  0.0000)
  21 Li    -1.753642    5.061734    3.465092    ( 0.0000,  0.0000,  0.0000)
  22 Li     3.506448    2.024791    3.465092    ( 0.0000,  0.0000,  0.0000)
  23 Li     1.753068    5.061734    3.465092    ( 0.0000,  0.0000,  0.0000)
  24 Li     1.753084    1.012487    5.431887    ( 0.0000,  0.0000,  0.0000)
  25 Li    -0.000296    4.049430    5.431887    ( 0.0000,  0.0000,  0.0000)
  26 Li     5.259794    1.012487    5.431887    ( 0.0000,  0.0000,  0.0000)
  27 Li     3.506414    4.049430    5.431887    ( 0.0000,  0.0000,  0.0000)
  28 Li     3.506429    0.000182    7.378027    ( 0.0000,  0.0000,  0.0000)
  29 Li     1.753049    3.037125    7.378027    ( 0.0000,  0.0000,  0.0000)
  30 Li     7.013139    0.000182    7.378027    ( 0.0000,  0.0000,  0.0000)
  31 Li     5.259759    3.037125    7.378027    ( 0.0000,  0.0000,  0.0000)
  32 Li    -0.000297    2.024791    7.378027    ( 0.0000,  0.0000,  0.0000)
  33 Li    -1.753677    5.061734    7.378027    ( 0.0000,  0.0000,  0.0000)
  34 Li     3.506413    2.024791    7.378027    ( 0.0000,  0.0000,  0.0000)
  35 Li     1.753033    5.061734    7.378027    ( 0.0000,  0.0000,  0.0000)
  36 Li     1.752598    1.012927    9.335157    ( 0.0000,  0.0000,  0.0000)
  37 Li     0.000000    4.049827    9.354737    ( 0.0000,  0.0000,  0.0000)
  38 Li     5.259674    1.012051    9.354725    ( 0.0000,  0.0000,  0.0000)
  39 Li     3.505158    4.050162    9.331151    ( 0.0000,  0.0000,  0.0000)
  40 Li     3.506017    0.000719   11.342805    ( 0.0000,  0.0000,  0.0000)
  41 Li     1.750751    3.038200   11.268104    ( 0.0000,  0.0000,  0.0000)
  42 Li     7.011325    0.001750   11.266491    ( 0.0000,  0.0000,  0.0000)
  43 Li     5.259561    3.037332   11.329756    ( 0.0000,  0.0000,  0.0000)
  44 Li    -0.001928    2.026160   11.342709    ( 0.0000,  0.0000,  0.0000)
  45 Li    -1.753051    5.061541   11.267728    ( 0.0000,  0.0000,  0.0000)
  46 Li     3.507063    2.024532   11.269146    ( 0.0000,  0.0000,  0.0000)
  47 Li     1.751196    5.062779   11.326985    ( 0.0000,  0.0000,  0.0000)
  48 N      1.753084    1.012487    3.439048    ( 0.0000,  0.0000,  0.0000)
  49 N     -0.000296    4.049430    3.439048    ( 0.0000,  0.0000,  0.0000)
  50 N      5.259794    1.012487    3.439048    ( 0.0000,  0.0000,  0.0000)
  51 N      3.506414    4.049430    3.439048    ( 0.0000,  0.0000,  0.0000)
  52 N      1.753031    1.012517    7.360963    ( 0.0000,  0.0000,  0.0000)
  53 N     -0.000349    4.049460    7.360963    ( 0.0000,  0.0000,  0.0000)
  54 N      5.259741    1.012517    7.360963    ( 0.0000,  0.0000,  0.0000)
  55 N      3.506361    4.049460    7.360963    ( 0.0000,  0.0000,  0.0000)
  56 N      1.751446    1.012417   11.268208    ( 0.0000,  0.0000,  0.0000)
  57 N     -0.000713    4.050311   11.303864    ( 0.0000,  0.0000,  0.0000)
  58 N      5.259117    1.012547   11.304107    ( 0.0000,  0.0000,  0.0000)
  59 N      3.505583    4.051250   11.259515    ( 0.0000,  0.0000,  0.0000)
  60 N      1.789546    1.078801   15.214623    ( 0.0000,  0.0000,  0.0000)
  61 N      0.019744    4.044361   15.286668    ( 0.0000,  0.0000,  0.0000)
  62 N      5.240885    1.026470   15.289143    ( 0.0000,  0.0000,  0.0000)
  63 N      3.460317    3.970301   15.232188    ( 0.0000,  0.0000,  0.0000)
  64 Li     2.756868    2.694467   17.058711    ( 0.0000,  0.0000,  0.0000)

Unit cell:
           periodic     x           y           z      points  spacing
  1. axis:    yes    7.013420    0.000000    0.000000    40     0.1518
  2. axis:    yes   -3.506760    6.073886    0.000000    40     0.1518
  3. axis:    yes    0.000000    0.000000   29.936001   160     0.1871

  Lengths:   7.013420   7.013520  29.936001
  Angles:   90.000000  90.000000 120.000000

Effective grid spacing dv^(1/3) = 0.1708

                     log10-error:    total        iterations:
           time      wfs    density  energy       fermi  poisson
iter:   1  10:28:58  -3.54         -234.499579    3             
iter:   2  10:29:39  -4.05  -2.38  -234.567829    3             
iter:   3  10:30:21  -4.85  -2.19  -234.501281    3             
iter:   4  10:31:02  -4.93  -2.70  -234.493058    3             
iter:   5  10:31:43  -5.09  -2.75  -234.501653    3             
iter:   6  10:32:25  -5.46  -2.73  -234.492679    3             
iter:   7  10:33:07  -5.60  -3.01  -234.495128    2             
iter:   8  10:33:49  -6.41  -3.31  -234.493954    2             
iter:   9  10:34:32  -6.40  -3.75  -234.493983    2             
iter:  10  10:35:13  -6.61  -3.90  -234.493723    2             
iter:  11  10:35:55  -7.47  -3.85  -234.493817    2             
iter:  12  10:36:37  -7.37  -4.02  -234.493934    2             

Converged after 12 iterations.

Dipole moment: (-2.474074, 1.417281, -11.382790) |e|*Ang

Energy contributions relative to reference atoms: (reference = -33644.147259)

Kinetic:       +255.310189
Potential:     -188.263313
External:        +0.000000
XC:            -300.212762
Entropy (-ST):   -0.075856
Local:           -1.290120
--------------------------
Free energy:   -234.531862
Extrapolated:  -234.493934

Fermi level: -0.28211

Showing only first 2 kpts
 Kpt  Band  Eigenvalues  Occupancy
  0    62     -0.51674    0.07927
  0    63     -0.10813    0.00239
  0    64     -0.01439    0.00038
  0    65      0.15317    0.00001

  1    62     -0.57530    0.15955
  1    63     -0.31063    0.10222
  1    64     -0.19172    0.02255
  1    65      0.33601    0.00000



Forces in eV/Ang:
  0 Li   -0.00007    0.00006   -0.04937
  1 Li   -0.00007    0.00005   -0.04948
  2 Li   -0.00007    0.00005   -0.04948
  3 Li   -0.00008    0.00004   -0.04939
  4 Li   -0.01629   -0.02493    0.06325
  5 Li   -0.06070    0.03439    0.00325
  6 Li    0.06113   -0.02945    0.01021
  7 Li    0.00707    0.01091    0.16789
  8 Li    0.11696    0.05290    0.17601
  9 Li   -0.06344   -0.00557   -0.38103
 10 Li   -0.09827    0.05122    0.18424
 11 Li    0.08772   -0.13608    0.13111
 12 Li   -0.01883    0.13334    0.18434
 13 Li    0.10136   -0.05546    0.18875
 14 Li    0.02502   -0.06820   -0.38511
 15 Li   -0.14464   -0.00837    0.12368
 16 Li    0.00014   -0.00018   -0.04141
 17 Li   -0.00013   -0.00005   -0.04166
 18 Li   -0.00012   -0.00003   -0.04168
 19 Li    0.00014   -0.00020   -0.04146
 20 Li   -0.00019    0.00016   -0.04141
 21 Li    0.00007    0.00000   -0.04169
 22 Li    0.00004   -0.00001   -0.04168
 23 Li   -0.00022    0.00013   -0.04142
 24 Li    0.00002    0.00010   -0.05205
 25 Li    0.00011   -0.00001   -0.04778
 26 Li   -0.00003   -0.00004   -0.04780
 27 Li   -0.00013   -0.00004   -0.05282
 28 Li    0.00382   -0.00225    0.00874
 29 Li   -0.00496    0.00192    0.00002
 30 Li   -0.00401    0.00325    0.00071
 31 Li    0.00452   -0.00260    0.00865
 32 Li   -0.00438    0.00280    0.00879
 33 Li    0.00449   -0.00180    0.00185
 34 Li    0.00391   -0.00278    0.00101
 35 Li   -0.00521    0.00298    0.00645
 36 Li    0.00007   -0.00154   -0.00740
 37 Li   -0.00322   -0.00023   -0.01007
 38 Li   -0.00098    0.00279   -0.00940
 39 Li    0.00372   -0.00070   -0.01072
 40 Li    0.00945   -0.00481    0.01198
 41 Li   -0.00747    0.00182    0.00862
 42 Li   -0.00863    0.00767   -0.00887
 43 Li    0.01202   -0.00802    0.01482
 44 Li   -0.00894    0.00602    0.01046
 45 Li    0.01109   -0.00235   -0.00689
 46 Li    0.00417   -0.00622    0.00930
 47 Li   -0.01204    0.00569    0.00901
 48 N    -0.00007    0.00038    0.07751
 49 N    -0.00023    0.00018    0.08835
 50 N    -0.00019    0.00019    0.08863
 51 N    -0.00027   -0.00001    0.07979
 52 N    -0.00019    0.00018    0.02013
 53 N     0.00044    0.00009    0.07858
 54 N     0.00006   -0.00057    0.07899
 55 N    -0.00084    0.00030    0.00913
 56 N    -0.00026   -0.00219    0.04044
 57 N    -0.00493    0.00022    0.04342
 58 N     0.00153    0.00152    0.04553
 59 N     0.00353    0.00095    0.06295
 60 N    -0.10011   -0.18196    0.03169
 61 N    -0.24356    0.10398   -0.02424
 62 N     0.20625   -0.13606   -0.02147
 63 N     0.07696    0.13382    0.08917
 64 Li    0.06358    0.12374   -0.72301

System changes: positions 

Initializing position-dependent things.

Density initialized from wave functions
                                         
                                         
                                         
                                         
                                         
                   LLi                   
           Li N                          
             Li       N   Li             
                 NLi Li  N               
              Li    Li Li   Li           
                                         
           Li N Li Li  N Li              
                  Li      Li             
             Li N    Li  N               
              Li    Li Li   Li           
                                         
           Li N Li Li  N Li              
                  Li      Li             
             Li N    Li  N               
              Li    Li Li   Li           
           Li      Li                    
              N Li     N Li              
             Li   Li Li   Li             
                N        N               
              Li    Li Li   Li           
                                         
                Li       Li              
                                         
                                         
                                         
                                         

Positions:
   0 Li     1.753189    1.012426    1.530029    ( 0.0000,  0.0000,  0.0000)
   1 Li    -0.000191    4.049369    1.530029    ( 0.0000,  0.0000,  0.0000)
   2 Li     5.259899    1.012426    1.530029    ( 0.0000,  0.0000,  0.0000)
   3 Li     3.506519    4.049369    1.530029    ( 0.0000,  0.0000,  0.0000)
   4 Li     1.745702    1.009005   13.256109    ( 0.0000,  0.0000,  0.0000)
   5 Li    -0.012503    4.060917   13.330118    ( 0.0000,  0.0000,  0.0000)
   6 Li     5.276995    1.000975   13.331288    ( 0.0000,  0.0000,  0.0000)
   7 Li     3.503213    4.054436   13.269311    ( 0.0000,  0.0000,  0.0000)
   8 Li     3.451887    0.046575   15.697130    ( 0.0000,  0.0000,  0.0000)
   9 Li     1.686185    3.054243   14.877114    ( 0.0000,  0.0000,  0.0000)
  10 Li     7.008323    0.008099   15.187722    ( 0.0000,  0.0000,  0.0000)
  11 Li     5.206471    3.052556   15.584841    ( 0.0000,  0.0000,  0.0000)
  12 Li     0.065533    2.002991   15.702898    ( 0.0000,  0.0000,  0.0000)
  13 Li    -1.745870    5.063974   15.179156    ( 0.0000,  0.0000,  0.0000)
  14 Li     3.551301    1.974475   14.859108    ( 0.0000,  0.0000,  0.0000)
  15 Li     1.790800    5.023813   15.602893    ( 0.0000,  0.0000,  0.0000)
  16 Li     3.506465    0.000182    3.465092    ( 0.0000,  0.0000,  0.0000)
  17 Li     1.753085    3.037125    3.465092    ( 0.0000,  0.0000,  0.0000)
  18 Li     7.013175    0.000182    3.465092    ( 0.0000,  0.0000,  0.0000)
  19 Li     5.259795    3.037125    3.465092    ( 0.0000,  0.0000,  0.0000)
  20 Li    -0.000262    2.024791    3.465092    ( 0.0000,  0.0000,  0.0000)
  21 Li    -1.753642    5.061734    3.465092    ( 0.0000,  0.0000,  0.0000)
  22 Li     3.506448    2.024791    3.465092    ( 0.0000,  0.0000,  0.0000)
  23 Li     1.753068    5.061734    3.465092    ( 0.0000,  0.0000,  0.0000)
  24 Li     1.753084    1.012487    5.431887    ( 0.0000,  0.0000,  0.0000)
  25 Li    -0.000296    4.049430    5.431887    ( 0.0000,  0.0000,  0.0000)
  26 Li     5.259794    1.012487    5.431887    ( 0.0000,  0.0000,  0.0000)
  27 Li     3.506414    4.049430    5.431887    ( 0.0000,  0.0000,  0.0000)
  28 Li     3.506429    0.000182    7.378027    ( 0.0000,  0.0000,  0.0000)
  29 Li     1.753049    3.037125    7.378027    ( 0.0000,  0.0000,  0.0000)
  30 Li     7.013139    0.000182    7.378027    ( 0.0000,  0.0000,  0.0000)
  31 Li     5.259759    3.037125    7.378027    ( 0.0000,  0.0000,  0.0000)
  32 Li    -0.000297    2.024791    7.378027    ( 0.0000,  0.0000,  0.0000)
  33 Li    -1.753677    5.061734    7.378027    ( 0.0000,  0.0000,  0.0000)
  34 Li     3.506413    2.024791    7.378027    ( 0.0000,  0.0000,  0.0000)
  35 Li     1.753033    5.061734    7.378027    ( 0.0000,  0.0000,  0.0000)
  36 Li     1.752536    1.012373    9.333038    ( 0.0000,  0.0000,  0.0000)
  37 Li    -0.000969    4.049844    9.353880    ( 0.0000,  0.0000,  0.0000)
  38 Li     5.259529    1.012720    9.353965    ( 0.0000,  0.0000,  0.0000)
  39 Li     3.506249    4.050119    9.329079    ( 0.0000,  0.0000,  0.0000)
  40 Li     3.507356    0.000529   11.342779    ( 0.0000,  0.0000,  0.0000)
  41 Li     1.749890    3.038596   11.270552    ( 0.0000,  0.0000,  0.0000)
  42 Li     7.009835    0.002728   11.264573    ( 0.0000,  0.0000,  0.0000)
  43 Li     5.260556    3.036143   11.335928    ( 0.0000,  0.0000,  0.0000)
  44 Li    -0.002568    2.027204   11.342403    ( 0.0000,  0.0000,  0.0000)
  45 Li    -1.751446    5.060985   11.266411    ( 0.0000,  0.0000,  0.0000)
  46 Li     3.507571    2.023887   11.271891    ( 0.0000,  0.0000,  0.0000)
  47 Li     1.749772    5.062896   11.331474    ( 0.0000,  0.0000,  0.0000)
  48 N      1.753084    1.012487    3.439048    ( 0.0000,  0.0000,  0.0000)
  49 N     -0.000296    4.049430    3.439048    ( 0.0000,  0.0000,  0.0000)
  50 N      5.259794    1.012487    3.439048    ( 0.0000,  0.0000,  0.0000)
  51 N      3.506414    4.049430    3.439048    ( 0.0000,  0.0000,  0.0000)
  52 N      1.753031    1.012517    7.360963    ( 0.0000,  0.0000,  0.0000)
  53 N     -0.000349    4.049460    7.360963    ( 0.0000,  0.0000,  0.0000)
  54 N      5.259741    1.012517    7.360963    ( 0.0000,  0.0000,  0.0000)
  55 N      3.506361    4.049460    7.360963    ( 0.0000,  0.0000,  0.0000)
  56 N      1.750960    1.011440   11.272737    ( 0.0000,  0.0000,  0.0000)
  57 N     -0.001450    4.050444   11.308957    ( 0.0000,  0.0000,  0.0000)
  58 N      5.259487    1.012595   11.309661    ( 0.0000,  0.0000,  0.0000)
  59 N      3.506490    4.052146   11.270001    ( 0.0000,  0.0000,  0.0000)
  60 N      1.796003    1.087108   15.235618    ( 0.0000,  0.0000,  0.0000)
  61 N     -0.002676    4.054175   15.283449    ( 0.0000,  0.0000,  0.0000)
  62 N      5.260150    1.013589   15.287751    ( 0.0000,  0.0000,  0.0000)
  63 N      3.446910    3.946789   15.287738    ( 0.0000,  0.0000,  0.0000)
  64 Li     2.734833    2.661212   16.899620    ( 0.0000,  0.0000,  0.0000)

Unit cell:
           periodic     x           y           z      points  spacing
  1. axis:    yes    7.013420    0.000000    0.000000    40     0.1518
  2. axis:    yes   -3.506760    6.073886    0.000000    40     0.1518
  3. axis:    yes    0.000000    0.000000   29.936001   160     0.1871

  Lengths:   7.013420   7.013520  29.936001
  Angles:   90.000000  90.000000 120.000000

Effective grid spacing dv^(1/3) = 0.1708

                     log10-error:    total        iterations:
           time      wfs    density  energy       fermi  poisson
iter:   1  10:37:52  -1.66         -234.839974    3             
iter:   2  10:38:34  -2.64  -1.83  -235.062456    5             
iter:   3  10:39:17  -3.57  -1.74  -234.765827    4             
iter:   4  10:39:57  -3.83  -2.04  -234.716300    3             
iter:   5  10:40:40  -3.54  -2.17  -234.790898    4             
iter:   6  10:41:21  -3.69  -2.04  -234.737216    3             
iter:   7  10:42:03  -3.56  -2.18  -234.694216    4             
iter:   8  10:42:46  -4.55  -2.18  -234.703913    4             
iter:   9  10:43:29  -5.12  -2.36  -234.708184    3             
iter:  10  10:44:10  -4.89  -2.34  -234.682178    3             
iter:  11  10:44:52  -5.05  -2.69  -234.673805    2             
iter:  12  10:45:33  -5.38  -3.20  -234.676175    2             
iter:  13  10:46:15  -6.26  -3.02  -234.674434    2             
iter:  14  10:46:56  -6.06  -3.30  -234.673247    2             
iter:  15  10:47:37  -6.28  -3.27  -234.673825    2             
iter:  16  10:48:19  -6.55  -3.69  -234.673873    2             
iter:  17  10:49:01  -7.30  -3.81  -234.673998    2             
iter:  18  10:49:42  -6.83  -3.86  -234.673931    2             
iter:  19  10:50:23  -7.59  -3.97  -234.673906    2             
iter:  20  10:51:05  -7.72  -4.05  -234.673884    2             

Converged after 20 iterations.

Dipole moment: (-1.900797, 1.046017, -11.420651) |e|*Ang

Energy contributions relative to reference atoms: (reference = -33644.147259)

Kinetic:       +254.963709
Potential:     -188.066785
External:        +0.000000
XC:            -300.245701
Entropy (-ST):   -0.074154
Local:           -1.288030
--------------------------
Free energy:   -234.710961
Extrapolated:  -234.673884

Fermi level: -0.30859

Showing only first 2 kpts
 Kpt  Band  Eigenvalues  Occupancy
  0    62     -0.55934    0.07947
  0    63     -0.16152    0.00401
  0    64     -0.01208    0.00021
  0    65      0.10002    0.00002

  1    62     -0.62129    0.15969
  1    63     -0.34309    0.10656
  1    64     -0.21441    0.02112
  1    65      0.29742    0.00000



Forces in eV/Ang:
  0 Li   -0.00007    0.00006   -0.05238
  1 Li   -0.00007    0.00005   -0.05246
  2 Li   -0.00007    0.00005   -0.05246
  3 Li   -0.00008    0.00004   -0.05246
  4 Li   -0.08780   -0.14663    0.01929
  5 Li   -0.14256    0.08355   -0.07853
  6 Li    0.14799   -0.08100   -0.07363
  7 Li    0.07121    0.12733    0.05827
  8 Li    0.29987   -0.07054    0.16503
  9 Li   -0.21682    0.08623   -0.17800
 10 Li   -0.08926    0.04358    0.14245
 11 Li    0.25013   -0.25162    0.15571
 12 Li   -0.20867    0.22421    0.16861
 13 Li    0.08418   -0.05816    0.14655
 14 Li    0.18625   -0.14264   -0.17076
 15 Li   -0.33525    0.07920    0.15179
 16 Li    0.00016   -0.00021   -0.04519
 17 Li   -0.00018   -0.00004   -0.04555
 18 Li   -0.00014   -0.00000   -0.04547
 19 Li    0.00019   -0.00022   -0.04523
 20 Li   -0.00022    0.00018   -0.04519
 21 Li    0.00011   -0.00000   -0.04545
 22 Li    0.00007   -0.00005   -0.04556
 23 Li   -0.00026    0.00016   -0.04523
 24 Li   -0.00014   -0.00022   -0.05861
 25 Li   -0.00012    0.00008   -0.05398
 26 Li    0.00012   -0.00009   -0.05401
 27 Li    0.00011    0.00023   -0.05942
 28 Li    0.00443   -0.00278    0.00561
 29 Li   -0.00592    0.00227   -0.00195
 30 Li   -0.00470    0.00385   -0.00363
 31 Li    0.00556   -0.00301    0.00454
 32 Li   -0.00484    0.00295    0.00569
 33 Li    0.00528   -0.00173   -0.00361
 34 Li    0.00428   -0.00352   -0.00212
 35 Li   -0.00594    0.00353    0.00453
 36 Li    0.00332    0.00479    0.02567
 37 Li    0.00176   -0.00250    0.01276
 38 Li   -0.00435    0.00395    0.01407
 39 Li   -0.00089   -0.00595    0.04993
 40 Li    0.00238    0.00309    0.03067
 41 Li    0.00551    0.00112    0.02123
 42 Li    0.00228   -0.00639    0.02075
 43 Li   -0.00583   -0.00040    0.03548
 44 Li    0.00104    0.00313    0.02786
 45 Li   -0.00706   -0.00128    0.02028
 46 Li   -0.00137    0.00535    0.02002
 47 Li    0.00237   -0.00443    0.03446
 48 N     0.00004    0.00058    0.09120
 49 N     0.00005    0.00009    0.09930
 50 N    -0.00038    0.00036    0.09988
 51 N    -0.00013    0.00027    0.09938
 52 N    -0.00084   -0.00136    0.02525
 53 N    -0.00089    0.00036    0.08391
 54 N     0.00046   -0.00042    0.08486
 55 N     0.00045    0.00105    0.01442
 56 N     0.00749    0.01341    0.01725
 57 N     0.00600   -0.00248    0.00949
 58 N    -0.00519    0.00377    0.01214
 59 N    -0.00806   -0.01316    0.06169
 60 N    -0.05928   -0.08277   -0.11551
 61 N    -0.03917    0.00235   -0.01697
 62 N     0.02652   -0.02799   -0.02600
 63 N     0.08429    0.14902   -0.25005
 64 Li    0.02915    0.06494   -0.51639

System changes: positions 

Initializing position-dependent things.

Density initialized from wave functions
                                         
                                         
                                         
                                         
                                         
                   LLi                   
           Li N       N                  
             Li           Li             
                 NLi Li  N               
              Li    Li Li   Li           
                                         
           Li N Li Li  N Li              
                  Li      Li             
             Li N    Li  N               
              Li    Li Li   Li           
                                         
           Li N Li Li  N Li              
                  Li      Li             
             Li N    Li  N               
              Li    Li Li   Li           
           Li      Li                    
              N Li     N Li              
             Li   Li Li   Li             
                N        N               
              Li    Li Li   Li           
                                         
                Li       Li              
                                         
                                         
                                         
                                         

Positions:
   0 Li     1.753189    1.012426    1.530029    ( 0.0000,  0.0000,  0.0000)
   1 Li    -0.000191    4.049369    1.530029    ( 0.0000,  0.0000,  0.0000)
   2 Li     5.259899    1.012426    1.530029    ( 0.0000,  0.0000,  0.0000)
   3 Li     3.506519    4.049369    1.530029    ( 0.0000,  0.0000,  0.0000)
   4 Li     1.743699    1.005719   13.259105    ( 0.0000,  0.0000,  0.0000)
   5 Li    -0.017686    4.063823   13.330018    ( 0.0000,  0.0000,  0.0000)
   6 Li     5.282177    0.998411   13.331595    ( 0.0000,  0.0000,  0.0000)
   7 Li     3.504660    4.056758   13.279041    ( 0.0000,  0.0000,  0.0000)
   8 Li     3.458919    0.050477   15.703557    ( 0.0000,  0.0000,  0.0000)
   9 Li     1.681111    3.055958   14.852510    ( 0.0000,  0.0000,  0.0000)
  10 Li     7.003371    0.009953   15.199519    ( 0.0000,  0.0000,  0.0000)
  11 Li     5.209636    3.044302   15.598696    ( 0.0000,  0.0000,  0.0000)
  12 Li     0.065334    2.011181   15.709892    ( 0.0000,  0.0000,  0.0000)
  13 Li    -1.741457    5.060759   15.191311    ( 0.0000,  0.0000,  0.0000)
  14 Li     3.555285    1.970528   14.834405    ( 0.0000,  0.0000,  0.0000)
  15 Li     1.782806    5.021656   15.616107    ( 0.0000,  0.0000,  0.0000)
  16 Li     3.506465    0.000182    3.465092    ( 0.0000,  0.0000,  0.0000)
  17 Li     1.753085    3.037125    3.465092    ( 0.0000,  0.0000,  0.0000)
  18 Li     7.013175    0.000182    3.465092    ( 0.0000,  0.0000,  0.0000)
  19 Li     5.259795    3.037125    3.465092    ( 0.0000,  0.0000,  0.0000)
  20 Li    -0.000262    2.024791    3.465092    ( 0.0000,  0.0000,  0.0000)
  21 Li    -1.753642    5.061734    3.465092    ( 0.0000,  0.0000,  0.0000)
  22 Li     3.506448    2.024791    3.465092    ( 0.0000,  0.0000,  0.0000)
  23 Li     1.753068    5.061734    3.465092    ( 0.0000,  0.0000,  0.0000)
  24 Li     1.753084    1.012487    5.431887    ( 0.0000,  0.0000,  0.0000)
  25 Li    -0.000296    4.049430    5.431887    ( 0.0000,  0.0000,  0.0000)
  26 Li     5.259794    1.012487    5.431887    ( 0.0000,  0.0000,  0.0000)
  27 Li     3.506414    4.049430    5.431887    ( 0.0000,  0.0000,  0.0000)
  28 Li     3.506429    0.000182    7.378027    ( 0.0000,  0.0000,  0.0000)
  29 Li     1.753049    3.037125    7.378027    ( 0.0000,  0.0000,  0.0000)
  30 Li     7.013139    0.000182    7.378027    ( 0.0000,  0.0000,  0.0000)
  31 Li     5.259759    3.037125    7.378027    ( 0.0000,  0.0000,  0.0000)
  32 Li    -0.000297    2.024791    7.378027    ( 0.0000,  0.0000,  0.0000)
  33 Li    -1.753677    5.061734    7.378027    ( 0.0000,  0.0000,  0.0000)
  34 Li     3.506413    2.024791    7.378027    ( 0.0000,  0.0000,  0.0000)
  35 Li     1.753033    5.061734    7.378027    ( 0.0000,  0.0000,  0.0000)
  36 Li     1.752578    1.012334    9.332791    ( 0.0000,  0.0000,  0.0000)
  37 Li    -0.001145    4.049804    9.353610    ( 0.0000,  0.0000,  0.0000)
  38 Li     5.259425    1.012930    9.353743    ( 0.0000,  0.0000,  0.0000)
  39 Li     3.506466    4.050011    9.329292    ( 0.0000,  0.0000,  0.0000)
  40 Li     3.507844    0.000382   11.343226    ( 0.0000,  0.0000,  0.0000)
  41 Li     1.749638    3.038725   11.271350    ( 0.0000,  0.0000,  0.0000)
  42 Li     7.009430    0.002981   11.264380    ( 0.0000,  0.0000,  0.0000)
  43 Li     5.260979    3.035761   11.337833    ( 0.0000,  0.0000,  0.0000)
  44 Li    -0.002927    2.027550   11.342732    ( 0.0000,  0.0000,  0.0000)
  45 Li    -1.751022    5.060827   11.266325    ( 0.0000,  0.0000,  0.0000)
  46 Li     3.507753    2.023700   11.272715    ( 0.0000,  0.0000,  0.0000)
  47 Li     1.749272    5.063043   11.333033    ( 0.0000,  0.0000,  0.0000)
  48 N      1.753084    1.012487    3.439048    ( 0.0000,  0.0000,  0.0000)
  49 N     -0.000296    4.049430    3.439048    ( 0.0000,  0.0000,  0.0000)
  50 N      5.259794    1.012487    3.439048    ( 0.0000,  0.0000,  0.0000)
  51 N      3.506414    4.049430    3.439048    ( 0.0000,  0.0000,  0.0000)
  52 N      1.753031    1.012517    7.360963    ( 0.0000,  0.0000,  0.0000)
  53 N     -0.000349    4.049460    7.360963    ( 0.0000,  0.0000,  0.0000)
  54 N      5.259741    1.012517    7.360963    ( 0.0000,  0.0000,  0.0000)
  55 N      3.506361    4.049460    7.360963    ( 0.0000,  0.0000,  0.0000)
  56 N      1.750913    1.011295   11.274666    ( 0.0000,  0.0000,  0.0000)
  57 N     -0.001690    4.050479   11.311065    ( 0.0000,  0.0000,  0.0000)
  58 N      5.259597    1.012657   11.311919    ( 0.0000,  0.0000,  0.0000)
  59 N      3.506681    4.052243   11.274389    ( 0.0000,  0.0000,  0.0000)
  60 N      1.792361    1.080506   15.237462    ( 0.0000,  0.0000,  0.0000)
  61 N     -0.013795    4.058640   15.281903    ( 0.0000,  0.0000,  0.0000)
  62 N      5.269435    1.007175   15.286334    ( 0.0000,  0.0000,  0.0000)
  63 N      3.449832    3.951892   15.291980    ( 0.0000,  0.0000,  0.0000)
  64 Li     2.729504    2.653385   16.854522    ( 0.0000,  0.0000,  0.0000)

Unit cell:
           periodic     x           y           z      points  spacing
  1. axis:    yes    7.013420    0.000000    0.000000    40     0.1518
  2. axis:    yes   -3.506760    6.073886    0.000000    40     0.1518
  3. axis:    yes    0.000000    0.000000   29.936001   160     0.1871

  Lengths:   7.013420   7.013520  29.936001
  Angles:   90.000000  90.000000 120.000000

Effective grid spacing dv^(1/3) = 0.1708

                     log10-error:    total        iterations:
           time      wfs    density  energy       fermi  poisson
iter:   1  10:52:30  -2.80         -234.728232    2             
iter:   2  10:53:11  -3.81  -2.50  -234.760202    3             
iter:   3  10:53:52  -4.62  -2.32  -234.729450    3             
iter:   4  10:54:33  -4.85  -2.80  -234.726475    2             
iter:   5  10:55:15  -4.98  -2.89  -234.730543    3             
iter:   6  10:55:56  -4.69  -2.81  -234.726827    3             
iter:   7  10:56:40  -5.86  -2.56  -234.725183    3             
iter:   8  10:57:21  -6.37  -3.02  -234.725490    2             
iter:   9  10:58:03  -5.52  -3.19  -234.726105    2             
iter:  10  10:58:45  -6.72  -3.75  -234.726201    2             
iter:  11  10:59:28  -7.33  -3.85  -234.726408    2             
iter:  12  11:00:10  -7.29  -3.82  -234.726414    2             
iter:  13  11:00:51  -7.30  -3.88  -234.726348    2             
iter:  14  11:01:33  -7.90  -4.06  -234.726341    2             

Converged after 14 iterations.

Dipole moment: (-1.757939, 0.948773, -11.433960) |e|*Ang

Energy contributions relative to reference atoms: (reference = -33644.147259)

Kinetic:       +254.839333
Potential:     -188.002011
External:        +0.000000
XC:            -300.236742
Entropy (-ST):   -0.073497
Local:           -1.290172
--------------------------
Free energy:   -234.763089
Extrapolated:  -234.726341

Fermi level: -0.31814

Showing only first 2 kpts
 Kpt  Band  Eigenvalues  Occupancy
  0    62     -0.57892    0.07957
  0    63     -0.16757    0.00375
  0    64     -0.02283    0.00022
  0    65      0.08678    0.00002

  1    62     -0.64077    0.15975
  1    63     -0.35060    0.10509
  1    64     -0.22344    0.02093
  1    65      0.28617    0.00000



Forces in eV/Ang:
  0 Li   -0.00007    0.00005   -0.05486
  1 Li   -0.00008    0.00005   -0.05493
  2 Li   -0.00007    0.00005   -0.05494
  3 Li   -0.00008    0.00005   -0.05494
  4 Li   -0.10681   -0.17927   -0.00078
  5 Li   -0.16237    0.09542   -0.08060
  6 Li    0.16870   -0.09275   -0.07821
  7 Li    0.09158    0.16209    0.00787
  8 Li    0.24816   -0.06215    0.14602
  9 Li   -0.21784    0.09480   -0.14030
 10 Li   -0.02877    0.00728    0.12894
 11 Li    0.18750   -0.21351    0.13181
 12 Li   -0.17135    0.18035    0.14920
 13 Li    0.01753   -0.02646    0.13263
 14 Li    0.19563   -0.13468   -0.13151
 15 Li   -0.27961    0.05076    0.13031
 16 Li    0.00016   -0.00020   -0.04460
 17 Li   -0.00018   -0.00005   -0.04493
 18 Li   -0.00013    0.00000   -0.04491
 19 Li    0.00019   -0.00022   -0.04464
 20 Li   -0.00021    0.00017   -0.04460
 21 Li    0.00011    0.00000   -0.04489
 22 Li    0.00007   -0.00005   -0.04494
 23 Li   -0.00027    0.00016   -0.04466
 24 Li   -0.00006   -0.00010   -0.06054
 25 Li   -0.00006    0.00004   -0.05590
 26 Li    0.00005   -0.00003   -0.05592
 27 Li    0.00005    0.00010   -0.06127
 28 Li    0.00448   -0.00265    0.00531
 29 Li   -0.00584    0.00221   -0.00206
 30 Li   -0.00477    0.00391   -0.00368
 31 Li    0.00551   -0.00313    0.00403
 32 Li   -0.00470    0.00303    0.00540
 33 Li    0.00534   -0.00169   -0.00393
 34 Li    0.00411   -0.00349   -0.00251
 35 Li   -0.00598    0.00339    0.00454
 36 Li    0.00357    0.00541    0.03537
 37 Li    0.00246   -0.00270    0.02194
 38 Li   -0.00460    0.00387    0.02331
 39 Li   -0.00153   -0.00630    0.06568
 40 Li   -0.00241    0.00713    0.03324
 41 Li    0.01019    0.00025    0.02775
 42 Li    0.00714   -0.01145    0.02642
 43 Li   -0.01409    0.00353    0.04047
 44 Li    0.00710    0.00076    0.03017
 45 Li   -0.01409   -0.00009    0.02552
 46 Li   -0.00407    0.00933    0.02638
 47 Li    0.00932   -0.00915    0.04005
 48 N    -0.00004    0.00045    0.09447
 49 N     0.00005    0.00013    0.10208
 50 N    -0.00034    0.00033    0.10276
 51 N    -0.00010    0.00036    0.10286
 52 N    -0.00057   -0.00102    0.03105
 53 N    -0.00086    0.00016    0.09020
 54 N     0.00013   -0.00014    0.09133
 55 N     0.00040    0.00055    0.02216
 56 N     0.00870    0.01631    0.00527
 57 N     0.00936   -0.00298   -0.00202
 58 N    -0.00703    0.00380    0.00084
 59 N    -0.01081   -0.01556    0.04975
 60 N     0.02199    0.06062   -0.08500
 61 N     0.08093   -0.05645    0.00267
 62 N    -0.07992    0.03595   -0.00552
 63 N     0.01604    0.02835   -0.24150
 64 Li    0.01901    0.04696   -0.42161

System changes: positions 

Initializing position-dependent things.

Density initialized from wave functions
                                         
                                         
                                         
                                         
                                         
                   LLi                   
           Li N       N                  
             Li           Li             
                N LiLii  N               
              Li       Li   Li           
                                         
           Li N Li Li  N Li              
                  Li      Li             
             Li N    Li  N               
              Li    Li Li   Li           
                                         
           Li N Li Li  N Li              
                  Li      Li             
             Li N    Li  N               
              Li    Li Li   Li           
           Li      Li                    
              N Li     N Li              
             Li   Li Li   Li             
                N        N               
              Li    Li Li   Li           
                                         
                Li       Li              
                                         
                                         
                                         
                                         

Positions:
   0 Li     1.753189    1.012426    1.530029    ( 0.0000,  0.0000,  0.0000)
   1 Li    -0.000191    4.049369    1.530029    ( 0.0000,  0.0000,  0.0000)
   2 Li     5.259899    1.012426    1.530029    ( 0.0000,  0.0000,  0.0000)
   3 Li     3.506519    4.049369    1.530029    ( 0.0000,  0.0000,  0.0000)
   4 Li     1.739060    0.998015   13.262461    ( 0.0000,  0.0000,  0.0000)
   5 Li    -0.027161    4.069234   13.328040    ( 0.0000,  0.0000,  0.0000)
   6 Li     5.291797    0.993439   13.330124    ( 0.0000,  0.0000,  0.0000)
   7 Li     3.508348    4.063024   13.290243    ( 0.0000,  0.0000,  0.0000)
   8 Li     3.472788    0.053140   15.713725    ( 0.0000,  0.0000,  0.0000)
   9 Li     1.670735    3.060005   14.821968    ( 0.0000,  0.0000,  0.0000)
  10 Li     6.996973    0.012258   15.215602    ( 0.0000,  0.0000,  0.0000)
  11 Li     5.217910    3.030148   15.617450    ( 0.0000,  0.0000,  0.0000)
  12 Li     0.060743    2.024638   15.720757    ( 0.0000,  0.0000,  0.0000)
  13 Li    -1.735947    5.056430   15.207882    ( 0.0000,  0.0000,  0.0000)
  14 Li     3.564037    1.963227   14.803963    ( 0.0000,  0.0000,  0.0000)
  15 Li     1.767259    5.020729   15.634094    ( 0.0000,  0.0000,  0.0000)
  16 Li     3.506465    0.000182    3.465092    ( 0.0000,  0.0000,  0.0000)
  17 Li     1.753085    3.037125    3.465092    ( 0.0000,  0.0000,  0.0000)
  18 Li     7.013175    0.000182    3.465092    ( 0.0000,  0.0000,  0.0000)
  19 Li     5.259795    3.037125    3.465092    ( 0.0000,  0.0000,  0.0000)
  20 Li    -0.000262    2.024791    3.465092    ( 0.0000,  0.0000,  0.0000)
  21 Li    -1.753642    5.061734    3.465092    ( 0.0000,  0.0000,  0.0000)
  22 Li     3.506448    2.024791    3.465092    ( 0.0000,  0.0000,  0.0000)
  23 Li     1.753068    5.061734    3.465092    ( 0.0000,  0.0000,  0.0000)
  24 Li     1.753084    1.012487    5.431887    ( 0.0000,  0.0000,  0.0000)
  25 Li    -0.000296    4.049430    5.431887    ( 0.0000,  0.0000,  0.0000)
  26 Li     5.259794    1.012487    5.431887    ( 0.0000,  0.0000,  0.0000)
  27 Li     3.506414    4.049430    5.431887    ( 0.0000,  0.0000,  0.0000)
  28 Li     3.506429    0.000182    7.378027    ( 0.0000,  0.0000,  0.0000)
  29 Li     1.753049    3.037125    7.378027    ( 0.0000,  0.0000,  0.0000)
  30 Li     7.013139    0.000182    7.378027    ( 0.0000,  0.0000,  0.0000)
  31 Li     5.259759    3.037125    7.378027    ( 0.0000,  0.0000,  0.0000)
  32 Li    -0.000297    2.024791    7.378027    ( 0.0000,  0.0000,  0.0000)
  33 Li    -1.753677    5.061734    7.378027    ( 0.0000,  0.0000,  0.0000)
  34 Li     3.506413    2.024791    7.378027    ( 0.0000,  0.0000,  0.0000)
  35 Li     1.753033    5.061734    7.378027    ( 0.0000,  0.0000,  0.0000)
  36 Li     1.752701    1.012406    9.333272    ( 0.0000,  0.0000,  0.0000)
  37 Li    -0.001288    4.049701    9.353766    ( 0.0000,  0.0000,  0.0000)
  38 Li     5.259210    1.013247    9.353985    ( 0.0000,  0.0000,  0.0000)
  39 Li     3.506676    4.049756    9.330978    ( 0.0000,  0.0000,  0.0000)
  40 Li     3.508344    0.000359   11.344433    ( 0.0000,  0.0000,  0.0000)
  41 Li     1.749565    3.038875   11.272867    ( 0.0000,  0.0000,  0.0000)
  42 Li     7.009131    0.003024   11.264724    ( 0.0000,  0.0000,  0.0000)
  43 Li     5.261170    3.035406   11.340872    ( 0.0000,  0.0000,  0.0000)
  44 Li    -0.003191    2.027955   11.343738    ( 0.0000,  0.0000,  0.0000)
  45 Li    -1.750844    5.060651   11.266764    ( 0.0000,  0.0000,  0.0000)
  46 Li     3.507875    2.023682   11.274228    ( 0.0000,  0.0000,  0.0000)
  47 Li     1.748901    5.063026   11.335683    ( 0.0000,  0.0000,  0.0000)
  48 N      1.753084    1.012487    3.439048    ( 0.0000,  0.0000,  0.0000)
  49 N     -0.000296    4.049430    3.439048    ( 0.0000,  0.0000,  0.0000)
[...]
  2. axis:    yes   -3.506760    6.073886    0.000000    40     0.1518
  3. axis:    yes    0.000000    0.000000   29.936001   160     0.1871

  Lengths:   7.013420   7.013520  29.936001
  Angles:   90.000000  90.000000 120.000000

Effective grid spacing dv^(1/3) = 0.1708

                     log10-error:    total        iterations:
           time      wfs    density  energy       fermi  poisson
iter:   1  16:54:46  -4.55         -235.048364    3             
iter:   2  16:55:28  -4.50  -2.54  -235.093956    4             
iter:   3  16:56:09  -5.05  -2.28  -235.049836    3             
iter:   4  16:56:50  -5.31  -3.01  -235.045999    3             
iter:   5  16:57:31  -6.28  -3.01  -235.047538    2             
iter:   6  16:58:13  -6.93  -3.73  -235.047097    2             
iter:   7  16:58:55  -6.81  -3.84  -235.047702    2             
iter:   8  16:59:36  -7.23  -3.71  -235.047304    2             
iter:   9  17:00:18  -7.92  -4.24  -235.047331    2             

Converged after 9 iterations.

Dipole moment: (-0.232833, -0.150896, -11.480669) |e|*Ang

Energy contributions relative to reference atoms: (reference = -33644.147259)

Kinetic:       +254.496032
Potential:     -187.888482
External:        +0.000000
XC:            -300.325244
Entropy (-ST):   -0.073851
Local:           -1.292712
--------------------------
Free energy:   -235.084256
Extrapolated:  -235.047331

Fermi level: -0.33739

Showing only first 2 kpts
 Kpt  Band  Eigenvalues  Occupancy
  0    62     -0.64265    0.07982
  0    63     -0.15453    0.00201
  0    64     -0.06517    0.00034
  0    65      0.02147    0.00006

  1    62     -0.70044    0.15989
  1    63     -0.36982    0.10507
  1    64     -0.23348    0.01780
  1    65      0.23713    0.00000



Forces in eV/Ang:
  0 Li   -0.00007    0.00006   -0.06141
  1 Li   -0.00008    0.00005   -0.06143
  2 Li   -0.00007    0.00005   -0.06139
  3 Li   -0.00007    0.00005   -0.06131
  4 Li   -0.00021    0.00014   -0.00184
  5 Li   -0.00209    0.00907   -0.00420
  6 Li    0.00397    0.00153   -0.01207
  7 Li   -0.00558   -0.00686    0.01963
  8 Li    0.00082   -0.02559    0.00784
  9 Li   -0.00022   -0.01293   -0.02456
 10 Li   -0.01177    0.00770   -0.02836
 11 Li    0.00770    0.01950   -0.02949
 12 Li   -0.02077   -0.01173    0.02029
 13 Li    0.00789   -0.00856   -0.00534
 14 Li   -0.01340   -0.00444   -0.02909
 15 Li    0.01547    0.01456   -0.01681
 16 Li    0.00039   -0.00024   -0.04855
 17 Li   -0.00020    0.00014   -0.04840
 18 Li   -0.00036   -0.00004   -0.04955
 19 Li    0.00020   -0.00032   -0.04843
 20 Li   -0.00037    0.00035   -0.04850
 21 Li    0.00018   -0.00021   -0.04956
 22 Li    0.00025    0.00002   -0.04845
 23 Li   -0.00035    0.00013   -0.04843
 24 Li    0.00051    0.00107   -0.07278
 25 Li    0.00061   -0.00044   -0.06492
 26 Li   -0.00053    0.00033   -0.06538
 27 Li   -0.00065   -0.00106   -0.07461
 28 Li    0.00345   -0.01258    0.01062
 29 Li   -0.01187    0.00688   -0.03923
 30 Li   -0.00489    0.00359    0.02376
 31 Li    0.01328    0.00373    0.00744
 32 Li   -0.01308   -0.00223    0.00600
 33 Li    0.00584   -0.00214    0.02453
 34 Li    0.01127   -0.00671   -0.03942
 35 Li   -0.00482    0.01361    0.00568
 36 Li    0.01809    0.02943    0.00882
 37 Li    0.01252   -0.00562   -0.00711
 38 Li   -0.01239    0.00847   -0.00993
 39 Li   -0.01494   -0.02712    0.00776
 40 Li   -0.00077   -0.00338    0.00741
 41 Li   -0.00253    0.00134    0.01415
 42 Li   -0.00135    0.00144    0.00107
 43 Li    0.00208    0.00098   -0.00242
 44 Li   -0.00227   -0.00195   -0.00304
 45 Li    0.00321   -0.00094   -0.00330
 46 Li    0.00230   -0.00148   -0.00443
 47 Li   -0.00067    0.00194   -0.01428
 48 N    -0.00064   -0.00067    0.10892
 49 N    -0.00075    0.00062    0.11343
 50 N     0.00040   -0.00018    0.11040
 51 N     0.00022    0.00086    0.10798
 52 N     0.01156    0.02238    0.06550
 53 N     0.01627   -0.00999    0.15165
 54 N    -0.01509    0.00956    0.14159
 55 N    -0.01250   -0.02067    0.00627
 56 N    -0.00107   -0.00198    0.00078
 57 N     0.00475   -0.00300    0.00267
 58 N    -0.00536    0.00260   -0.00012
 59 N     0.00204    0.00261    0.01734
 60 N     0.01468    0.02081    0.02728
 61 N    -0.01146    0.00472    0.02596
 62 N     0.00706   -0.00935    0.02203
 63 N    -0.00369   -0.00922    0.01049
 64 Li    0.00766    0.00529   -0.02838

System changes: positions 

Initializing position-dependent things.

Density initialized from wave functions
                                         
                                         
                                         
                                         
                                         
           Li      LLi                   
              N       N   Li             
             Li  Li                      
              Li N  LiiLiN  Li           
                                         
           Li   Li Li    Li              
              N   Li   N  Li             
             Li      Li                  
              LiN   Li LiN               
                            Li           
           Li N Li Li  N Li              
                  Li      Li             
             Li N    Li  N               
              Li    Li Li   Li           
                                         
           Li N Li Li  N Li              
                  Li      Li             
             Li N    Li  N               
              Li    Li Li   Li           
                                         
                Li       Li              
                                         
                                         
                                         
                                         

Positions:
   0 Li     1.753189    1.012426    1.530029    ( 0.0000,  0.0000,  0.0000)
   1 Li    -0.000191    4.049369    1.530029    ( 0.0000,  0.0000,  0.0000)
   2 Li     5.259899    1.012426    1.530029    ( 0.0000,  0.0000,  0.0000)
   3 Li     3.506519    4.049369    1.530029    ( 0.0000,  0.0000,  0.0000)
   4 Li     1.631692    0.804942   13.259916    ( 0.0000,  0.0000,  0.0000)
   5 Li    -0.202080    4.188125   13.329992    ( 0.0000,  0.0000,  0.0000)
   6 Li     5.475832    0.904087   13.317670    ( 0.0000,  0.0000,  0.0000)
   7 Li     3.601496    4.221069   13.214291    ( 0.0000,  0.0000,  0.0000)
   8 Li     3.520484    0.107470   15.746002    ( 0.0000,  0.0000,  0.0000)
   9 Li     1.602718    3.056479   14.532767    ( 0.0000,  0.0000,  0.0000)
  10 Li     6.994754    0.016298   15.319506    ( 0.0000,  0.0000,  0.0000)
  11 Li     5.198164    2.964843   15.491106    ( 0.0000,  0.0000,  0.0000)
  12 Li     0.089799    2.089131   15.776659    ( 0.0000,  0.0000,  0.0000)
  13 Li    -1.738131    5.052633   15.362974    ( 0.0000,  0.0000,  0.0000)
  14 Li     3.593505    1.908592   14.518466    ( 0.0000,  0.0000,  0.0000)
  15 Li     1.728486    4.966898   15.524861    ( 0.0000,  0.0000,  0.0000)
  16 Li     3.506465    0.000182    3.465092    ( 0.0000,  0.0000,  0.0000)
  17 Li     1.753085    3.037125    3.465092    ( 0.0000,  0.0000,  0.0000)
  18 Li     7.013175    0.000182    3.465092    ( 0.0000,  0.0000,  0.0000)
  19 Li     5.259795    3.037125    3.465092    ( 0.0000,  0.0000,  0.0000)
  20 Li    -0.000262    2.024791    3.465092    ( 0.0000,  0.0000,  0.0000)
  21 Li    -1.753642    5.061734    3.465092    ( 0.0000,  0.0000,  0.0000)
  22 Li     3.506448    2.024791    3.465092    ( 0.0000,  0.0000,  0.0000)
  23 Li     1.753068    5.061734    3.465092    ( 0.0000,  0.0000,  0.0000)
  24 Li     1.753084    1.012487    5.431887    ( 0.0000,  0.0000,  0.0000)
  25 Li    -0.000296    4.049430    5.431887    ( 0.0000,  0.0000,  0.0000)
  26 Li     5.259794    1.012487    5.431887    ( 0.0000,  0.0000,  0.0000)
  27 Li     3.506414    4.049430    5.431887    ( 0.0000,  0.0000,  0.0000)
  28 Li     3.506429    0.000182    7.378027    ( 0.0000,  0.0000,  0.0000)
  29 Li     1.753049    3.037125    7.378027    ( 0.0000,  0.0000,  0.0000)
  30 Li     7.013139    0.000182    7.378027    ( 0.0000,  0.0000,  0.0000)
  31 Li     5.259759    3.037125    7.378027    ( 0.0000,  0.0000,  0.0000)
  32 Li    -0.000297    2.024791    7.378027    ( 0.0000,  0.0000,  0.0000)
  33 Li    -1.753677    5.061734    7.378027    ( 0.0000,  0.0000,  0.0000)
  34 Li     3.506413    2.024791    7.378027    ( 0.0000,  0.0000,  0.0000)
  35 Li     1.753033    5.061734    7.378027    ( 0.0000,  0.0000,  0.0000)
  36 Li     1.768191    1.042598    9.335929    ( 0.0000,  0.0000,  0.0000)
  37 Li     0.020417    4.038462    9.368150    ( 0.0000,  0.0000,  0.0000)
  38 Li     5.241319    1.025625    9.365448    ( 0.0000,  0.0000,  0.0000)
  39 Li     3.490145    4.023898    9.322334    ( 0.0000,  0.0000,  0.0000)
  40 Li     3.511239    0.011099   11.407004    ( 0.0000,  0.0000,  0.0000)
  41 Li     1.753383    3.041043   11.336627    ( 0.0000,  0.0000,  0.0000)
  42 Li     7.007976    0.007268   11.155340    ( 0.0000,  0.0000,  0.0000)
  43 Li     5.257982    3.035334   11.392649    ( 0.0000,  0.0000,  0.0000)
  44 Li     0.003126    2.036813   11.384960    ( 0.0000,  0.0000,  0.0000)
  45 Li    -1.744845    5.060708   11.142484    ( 0.0000,  0.0000,  0.0000)
  46 Li     3.508603    2.027684   11.303270    ( 0.0000,  0.0000,  0.0000)
  47 Li     1.748187    5.061050   11.366014    ( 0.0000,  0.0000,  0.0000)
  48 N      1.753084    1.012487    3.439048    ( 0.0000,  0.0000,  0.0000)
  49 N     -0.000296    4.049430    3.439048    ( 0.0000,  0.0000,  0.0000)
  50 N      5.259794    1.012487    3.439048    ( 0.0000,  0.0000,  0.0000)
  51 N      3.506414    4.049430    3.439048    ( 0.0000,  0.0000,  0.0000)
  52 N      1.753031    1.012517    7.360963    ( 0.0000,  0.0000,  0.0000)
  53 N     -0.000349    4.049460    7.360963    ( 0.0000,  0.0000,  0.0000)
  54 N      5.259741    1.012517    7.360963    ( 0.0000,  0.0000,  0.0000)
  55 N      3.506361    4.049460    7.360963    ( 0.0000,  0.0000,  0.0000)
  56 N      1.748549    1.007310   11.281461    ( 0.0000,  0.0000,  0.0000)
  57 N     -0.008824    4.060352   11.335035    ( 0.0000,  0.0000,  0.0000)
  58 N      5.270976    1.011725   11.329117    ( 0.0000,  0.0000,  0.0000)
  59 N      3.511103    4.060544   11.248983    ( 0.0000,  0.0000,  0.0000)
  60 N      1.803523    1.100362   15.192309    ( 0.0000,  0.0000,  0.0000)
  61 N     -0.023856    4.048109   15.261782    ( 0.0000,  0.0000,  0.0000)
  62 N      5.269054    0.990683   15.244827    ( 0.0000,  0.0000,  0.0000)
  63 N      3.448951    3.948207   15.118920    ( 0.0000,  0.0000,  0.0000)
  64 Li     2.681381    2.590485   16.466076    ( 0.0000,  0.0000,  0.0000)

Unit cell:
           periodic     x           y           z      points  spacing
  1. axis:    yes    7.013420    0.000000    0.000000    40     0.1518
  2. axis:    yes   -3.506760    6.073886    0.000000    40     0.1518
  3. axis:    yes    0.000000    0.000000   29.936001   160     0.1871

  Lengths:   7.013420   7.013520  29.936001
  Angles:   90.000000  90.000000 120.000000

Effective grid spacing dv^(1/3) = 0.1708

                     log10-error:    total        iterations:
           time      wfs    density  energy       fermi  poisson
iter:   1  17:01:33  -4.45         -235.048291    3             
iter:   2  17:02:15  -4.51  -2.56  -235.091518    4             
iter:   3  17:02:56  -5.12  -2.30  -235.050375    3             
iter:   4  17:03:37  -5.26  -2.97  -235.046174    3             
iter:   5  17:04:19  -6.33  -2.96  -235.047849    2             
iter:   6  17:05:01  -6.66  -3.60  -235.047016    2             
iter:   7  17:05:42  -6.51  -3.53  -235.047821    2             
iter:   8  17:06:24  -7.27  -3.78  -235.047484    2             
iter:   9  17:07:06  -7.65  -4.20  -235.047470    2             

Converged after 9 iterations.

Dipole moment: (-0.249132, -0.140441, -11.481478) |e|*Ang

Energy contributions relative to reference atoms: (reference = -33644.147259)

Kinetic:       +254.402472
Potential:     -187.821831
External:        +0.000000
XC:            -300.297899
Entropy (-ST):   -0.074048
Local:           -1.293188
--------------------------
Free energy:   -235.084494
Extrapolated:  -235.047470

Fermi level: -0.33690

Showing only first 2 kpts
 Kpt  Band  Eigenvalues  Occupancy
  0    62     -0.63997    0.07981
  0    63     -0.15320    0.00198
  0    64     -0.06440    0.00034
  0    65      0.02063    0.00006

  1    62     -0.69856    0.15988
  1    63     -0.36891    0.10477
  1    64     -0.23233    0.01759
  1    65      0.23647    0.00000



Forces in eV/Ang:
  0 Li   -0.00006    0.00007   -0.06057
  1 Li   -0.00007    0.00004   -0.06061
  2 Li   -0.00008    0.00005   -0.06057
  3 Li   -0.00008    0.00003   -0.06047
  4 Li    0.00224    0.00408    0.00061
  5 Li    0.00370    0.00572   -0.00874
  6 Li   -0.00204    0.00509   -0.01467
  7 Li   -0.00759   -0.01073    0.02663
  8 Li    0.00227   -0.02158    0.00953
  9 Li   -0.00270   -0.01378   -0.01502
 10 Li   -0.01960    0.01342   -0.02120
 11 Li    0.01019    0.01255   -0.02417
 12 Li   -0.01898   -0.00853    0.02186
 13 Li    0.01696   -0.01191    0.00173
 14 Li   -0.01280   -0.00761   -0.01957
 15 Li    0.00996    0.01295   -0.01160
 16 Li    0.00039   -0.00024   -0.04872
 17 Li   -0.00019    0.00013   -0.04854
 18 Li   -0.00035   -0.00004   -0.04974
 19 Li    0.00019   -0.00032   -0.04860
 20 Li   -0.00036    0.00035   -0.04867
 21 Li    0.00018   -0.00020   -0.04976
 22 Li    0.00024    0.00002   -0.04858
 23 Li   -0.00034    0.00012   -0.04860
 24 Li    0.00058    0.00118   -0.07264
 25 Li    0.00070   -0.00049   -0.06492
 26 Li   -0.00064    0.00039   -0.06544
 27 Li   -0.00072   -0.00119   -0.07441
 28 Li    0.00316   -0.01269    0.01027
 29 Li   -0.01206    0.00696   -0.04101
 30 Li   -0.00443    0.00332    0.02552
 31 Li    0.01325    0.00405    0.00727
 32 Li   -0.01301   -0.00254    0.00589
 33 Li    0.00535   -0.00189    0.02615
 34 Li    0.01143   -0.00679   -0.04133
 35 Li   -0.00449    0.01373    0.00552
 36 Li    0.01630    0.02672    0.00434
 37 Li    0.01200   -0.00562   -0.00477
 38 Li   -0.01181    0.00802   -0.00709
 39 Li   -0.01350   -0.02448    0.00327
 40 Li   -0.00080   -0.00302    0.00934
 41 Li   -0.00080    0.00137    0.01231
 42 Li   -0.00090   -0.00024    0.00080
 43 Li    0.00120    0.00224   -0.00131
 44 Li   -0.00217   -0.00172   -0.00127
 45 Li    0.00147   -0.00134   -0.00361
 46 Li    0.00151   -0.00002   -0.00634
 47 Li    0.00107    0.00171   -0.01357
 48 N    -0.00062   -0.00064    0.11147
 49 N    -0.00071    0.00061    0.11679
 50 N     0.00038   -0.00016    0.11332
 51 N     0.00020    0.00083    0.11055
 52 N     0.01231    0.02352    0.06861
 53 N     0.01678   -0.01020    0.15400
 54 N    -0.01567    0.00986    0.14385
 55 N    -0.01318   -0.02186    0.00969
 56 N    -0.00163   -0.00295    0.00270
 57 N     0.00229   -0.00172    0.00031
 58 N    -0.00273    0.00142   -0.00322
 59 N     0.00208    0.00296    0.01727
 60 N     0.00270    0.00058    0.01370
 61 N    -0.02546    0.01275    0.01721
 62 N     0.02112   -0.01554    0.01053
 63 N     0.00738    0.01019   -0.00489
 64 Li    0.00844    0.00631   -0.03425

Timing:                                      incl.     excl.
-------------------------------------------------------------------
Density initialized from wave functions:   259.254   259.253   0.9% |
 Symmetrize density:                         0.001     0.001   0.0% |
Forces:                                    735.744   735.744   2.6% ||
Hamiltonian:                               160.570     0.564   0.0% |
 Atomic:                                    23.218    13.240   0.0% |
  XC Correction:                             9.978     9.978   0.0% |
 Calculate atomic Hamiltonians:             70.234    70.234   0.3% |
 Communicate:                                1.714     1.714   0.0% |
 Initialize Hamiltonian:                     0.001     0.001   0.0% |
 Poisson:                                    0.130     0.130   0.0% |
 XC 3D grid:                                64.708    64.708   0.2% |
LCAO initialization:                        16.743     0.052   0.0% |
 LCAO eigensolver:                           3.970     0.000   0.0% |
  Calculate projections:                     0.059     0.059   0.0% |
  DenseAtomicCorrection:                     0.020     0.020   0.0% |
  Distribute overlap matrix:                 0.001     0.001   0.0% |
  Orbital Layouts:                           0.273     0.273   0.0% |
  Potential matrix:                          3.612     3.612   0.0% |
  Sum over cells:                            0.004     0.004   0.0% |
 LCAO to grid:                              11.198    11.198   0.0% |
 Set positions (LCAO WFS):                   1.523     0.334   0.0% |
  Basic WFS set positions:                   0.034     0.034   0.0% |
  Basis functions set positions:             0.000     0.000   0.0% |
  P tci:                                     0.593     0.593   0.0% |
  ST tci:                                    0.258     0.258   0.0% |
  mktci:                                     0.303     0.303   0.0% |
PWDescriptor:                                1.197     1.197   0.0% |
Redistribute:                                0.177     0.177   0.0% |
SCF-cycle:                               24103.172  9733.052  34.9% |-------------|
 Davidson:                               10265.297  3808.387  13.7% |----|
  Apply H:                                 977.336   973.123   3.5% ||
   HMM T:                                    4.212     4.212   0.0% |
  Subspace diag:                          1548.622     0.136   0.0% |
   calc_h_matrix:                         1090.704   169.669   0.6% |
    Apply H:                               921.035   916.818   3.3% ||
     HMM T:                                  4.216     4.216   0.0% |
   diagonalize:                             56.170    56.170   0.2% |
   rotate_psi:                             401.612   401.612   1.4% ||
  calc. matrices:                         2993.117  1155.351   4.1% |-|
   Apply H:                               1837.766  1829.704   6.6% |--|
    HMM T:                                   8.062     8.062   0.0% |
  diagonalize:                             149.366   149.366   0.5% |
  rotate_psi:                              788.470   788.470   2.8% ||
 Density:                                 1988.872     0.012   0.0% |
  Atomic density matrices:                   3.240     3.240   0.0% |
  Mix:                                    1138.423  1138.423   4.1% |-|
  Multipole moments:                         0.457     0.457   0.0% |
  Pseudo density:                          846.741   846.727   3.0% ||
   Symmetrize density:                       0.013     0.013   0.0% |
 Hamiltonian:                             1877.906     6.489   0.0% |
  Atomic:                                  283.150   178.880   0.6% |
   XC Correction:                          104.269   104.269   0.4% |
  Calculate atomic Hamiltonians:           817.378   817.378   2.9% ||
  Communicate:                              20.171    20.171   0.1% |
  Poisson:                                   1.494     1.494   0.0% |
  XC 3D grid:                              749.225   749.225   2.7% ||
 Orthonormalize:                           238.045     0.011   0.0% |
  calc_s_matrix:                             7.051     7.051   0.0% |
  inverse-cholesky:                        145.551   145.551   0.5% |
  projections:                              74.665    74.665   0.3% |
  rotate_psi_s:                             10.767    10.767   0.0% |
Set symmetry:                                0.001     0.001   0.0% |
Other:                                    2578.600  2578.600   9.3% |---|
-------------------------------------------------------------------
Total:                                             27855.459 100.0%

Date: Tue Sep  7 17:07:25 2021
