
  ___ ___ ___ _ _ _  
 |   |   |_  | | | | 
 | | | | | . | | | | 
 |__ |  _|___|_____|  20.1.0
 |___|_|             

User:   jngwng01@n944028
Date:   Tue Sep  7 09:23:09 2021
Arch:   x86_64
Pid:    25571
Python: 3.8.5
gpaw:   /uls/7/gpaw-20.1.0/lib/python3.8/site-packages/gpaw-20.1.0-py3.8-linux-x86_64.egg/gpaw
_gpaw:  /uls/7/gpaw-20.1.0/lib/python3.8/site-packages/gpaw-20.1.0-py3.8-linux-x86_64.egg/
        _gpaw.cpython-38-x86_64-linux-gnu.so
ase:    /uls/7/gpaw-20.1.0/lib/python3.8/site-packages/ase-3.20.1-py3.8.egg/ase (version 3.20.1)
numpy:  /uls/7/gpaw-20.1.0/lib/python3.8/site-packages/numpy (version 1.19.2)
scipy:  /uls/7/gpaw-20.1.0/lib/python3.8/site-packages/scipy-1.5.2-py3.8-linux-x86_64.egg/scipy (version 1.5.2)
libxc:  4.3.4
units:  Angstrom and eV
cores: 16
OMP_NUM_THREADS: 1

Input parameters:
  convergence: {density: 0.0001,
                eigenstates: 1e-07}
  kpts: [5 5 1]
  mode: {ecut: 500.0,
         gammacentered: False,
         name: pw}
  occupations: {name: fermi-dirac,
                width: 0.05}
  xc: PBE

System changes: positions, numbers, cell, pbc, initial_charges, initial_magmoms 

Initialize ...

Li-setup:
  name: Lithium
  id: 830b4218f175192f93f959cfc0aad614
  Z: 3
  valence: 1
  core: 2
  charge: 0.0
  file: /uls/7/gpaw-20.1.0/setups/gpaw-setups-0.9.20000/Li.PBE.gz
  compensation charges: gauss, rc=0.33, lmax=2
  cutoffs: 1.91(filt), 2.55(core),
  valence states:
                energy  radius
    2s(1.00)    -2.874   1.058
    2p(0.00)    -1.090   1.058
    *s          24.337   1.058

  Using partial waves for Li as LCAO basis

N-setup:
  name: Nitrogen
  id: f7500608b86eaa90eef8b1d9a670dc53
  Z: 7
  valence: 5
  core: 2
  charge: 0.0
  file: /uls/7/gpaw-20.1.0/setups/gpaw-setups-0.9.20000/N.PBE.gz
  compensation charges: gauss, rc=0.18, lmax=2
  cutoffs: 1.11(filt), 0.96(core),
  valence states:
                energy  radius
    2s(2.00)   -18.583   0.603
    2p(3.00)    -7.089   0.529
    *s           8.629   0.603
    *p          20.123   0.529
    *d           0.000   0.577

  Using partial waves for N as LCAO basis

Reference energy: -33644.147259

Spin-paired calculation

Occupation numbers:
  Fermi-Dirac: width=0.0500 eV

Convergence criteria:
  Maximum total energy change: 0.0005 eV / electron
  Maximum integral of absolute density change: 0.0001 electrons
  Maximum integral of absolute eigenstate change: 1e-07 eV^2
  Maximum number of iterations: 333

Symmetries present (total): 1

  ( 1  0  0)
  ( 0  1  0)
  ( 0  0  1)

25 k-points: 5 x 5 x 1 Monkhorst-Pack grid
13 k-points in the irreducible part of the Brillouin zone
       k-points in crystal coordinates                weights
   0:     0.00000000    0.00000000    0.00000000          1/25
   1:     0.00000000    0.20000000    0.00000000          2/25
   2:     0.00000000    0.40000000    0.00000000          2/25
   3:     0.20000000   -0.40000000    0.00000000          2/25
   4:     0.20000000   -0.20000000    0.00000000          2/25
   5:     0.20000000    0.00000000    0.00000000          2/25
   6:     0.20000000    0.20000000    0.00000000          2/25
   7:     0.20000000    0.40000000    0.00000000          2/25
   8:     0.40000000   -0.40000000    0.00000000          2/25
   9:     0.40000000   -0.20000000    0.00000000          2/25
          ...
  12:     0.40000000    0.40000000    0.00000000          2/25

Wave functions: Plane wave expansion
  Cutoff energy: 500.000 eV
  Number of coefficients (min, max): 32263, 32394
  Pulay-stress correction: 0.000000 eV/Ang^3 (de/decut=0.000000)
  Using FFTW library
  ScaLapack parameters: grid=1x1, blocksize=None
  Wavefunction extrapolation:
    Improved wavefunction reuse through dual PAW basis 

Eigensolver
   Davidson(niter=2, smin=None, normalize=True) 

Densities:
  Coarse grid: 40*40*160 grid
  Fine grid: 80*80*320 grid
  Total Charge: 0.000000 

Density mixing:
  Method: separate
  Backend: pulay
  Linear mixing parameter: 0.05
  Mixing with 5 old densities
  Damping of long wave oscillations: 50 

Hamiltonian:
  XC and Coulomb potentials evaluated on a 80*80*320 grid
  Using the PBE Exchange-Correlation functional
 

XC parameters: PBE with 2 nearest neighbor stencil

Memory estimate:
  Process memory now: 240.47 MiB
  Calculator: 170.79 MiB
    Density: 56.64 MiB
      Arrays: 25.39 MiB
      Localized functions: 21.49 MiB
      Mixer: 9.77 MiB
    Hamiltonian: 17.13 MiB
      Arrays: 16.60 MiB
      XC: 0.00 MiB
      Poisson: 0.00 MiB
      vbar: 0.52 MiB
    Wavefunctions: 97.02 MiB
      Arrays psit_nG: 40.53 MiB
      Eigensolver: 44.03 MiB
      Projections: 0.28 MiB
      Projectors: 2.10 MiB
      PW-descriptor: 10.07 MiB

Total number of cores used: 16
Parallelization over k-points: 8
Domain decomposition: 1 x 1 x 2
                      2 x 2 x 4 (xc only)

Number of atoms: 65
Number of atomic orbitals: 260
Number of bands in calculation: 82
Number of valence electrons: 129
Bands to converge: occupied

... initialized

Initializing position-dependent things.

Density initialized from atomic densities
Creating initial wave functions:
  82 bands from LCAO basis set

                                         
                                         
                                         
                                         
                                         
                      Li                 
           Li      Li                    
             Li        N  Li             
                 Li Lii                  
              LiN      LiN  Li           
                                         
           Li   Li Li    Li              
              N   Li   N  Li             
             Li      Li                  
              LiN   Li LiN  Li           
                                         
           Li N Li Li  N Li              
                  Li      Li             
             Li N    Li  N               
              Li    Li Li   Li           
                                         
           Li N Li Li  N Li              
             Li   Li Li   Li             
                N        N               
              Li    Li Li   Li           
                                         
                Li       Li              
                                         
                                         
                                         
                                         

Positions:
   0 Li     1.753189    1.012426    1.530029    ( 0.0000,  0.0000,  0.0000)
   1 Li    -0.000191    4.049369    1.530029    ( 0.0000,  0.0000,  0.0000)
   2 Li     5.259899    1.012426    1.530029    ( 0.0000,  0.0000,  0.0000)
   3 Li     3.506519    4.049369    1.530029    ( 0.0000,  0.0000,  0.0000)
   4 Li     1.748181    1.016111   13.284819    ( 0.0000,  0.0000,  0.0000)
   5 Li     0.008194    4.052083   13.304774    ( 0.0000,  0.0000,  0.0000)
   6 Li     5.260985    1.003715   13.304704    ( 0.0000,  0.0000,  0.0000)
   7 Li     3.496766    4.053515   13.188685    ( 0.0000,  0.0000,  0.0000)
   8 Li     3.511482   -0.013194   15.955512    ( 0.0000,  0.0000,  0.0000)
   9 Li     1.680256    3.009311   15.113577    ( 0.0000,  0.0000,  0.0000)
  10 Li     7.001670    0.065285   15.125787    ( 0.0000,  0.0000,  0.0000)
  11 Li     5.338212    3.003986   15.240883    ( 0.0000,  0.0000,  0.0000)
  12 Li    -0.022956    2.027778   15.955620    ( 0.0000,  0.0000,  0.0000)
  13 Li    -1.691441    5.087541   15.110266    ( 0.0000,  0.0000,  0.0000)
  14 Li     3.515527    1.945925   15.096962    ( 0.0000,  0.0000,  0.0000)
  15 Li     1.687916    5.110718   15.272531    ( 0.0000,  0.0000,  0.0000)
  16 Li     3.506465    0.000182    3.465092    ( 0.0000,  0.0000,  0.0000)
  17 Li     1.753085    3.037125    3.465092    ( 0.0000,  0.0000,  0.0000)
  18 Li     7.013175    0.000182    3.465092    ( 0.0000,  0.0000,  0.0000)
  19 Li     5.259795    3.037125    3.465092    ( 0.0000,  0.0000,  0.0000)
  20 Li    -0.000262    2.024791    3.465092    ( 0.0000,  0.0000,  0.0000)
  21 Li    -1.753642    5.061734    3.465092    ( 0.0000,  0.0000,  0.0000)
  22 Li     3.506448    2.024791    3.465092    ( 0.0000,  0.0000,  0.0000)
  23 Li     1.753068    5.061734    3.465092    ( 0.0000,  0.0000,  0.0000)
  24 Li     1.753084    1.012487    5.431887    ( 0.0000,  0.0000,  0.0000)
  25 Li    -0.000296    4.049430    5.431887    ( 0.0000,  0.0000,  0.0000)
  26 Li     5.259794    1.012487    5.431887    ( 0.0000,  0.0000,  0.0000)
  27 Li     3.506414    4.049430    5.431887    ( 0.0000,  0.0000,  0.0000)
  28 Li     3.506429    0.000182    7.378027    ( 0.0000,  0.0000,  0.0000)
  29 Li     1.753049    3.037125    7.378027    ( 0.0000,  0.0000,  0.0000)
  30 Li     7.013139    0.000182    7.378027    ( 0.0000,  0.0000,  0.0000)
  31 Li     5.259759    3.037125    7.378027    ( 0.0000,  0.0000,  0.0000)
  32 Li    -0.000297    2.024791    7.378027    ( 0.0000,  0.0000,  0.0000)
  33 Li    -1.753677    5.061734    7.378027    ( 0.0000,  0.0000,  0.0000)
  34 Li     3.506413    2.024791    7.378027    ( 0.0000,  0.0000,  0.0000)
  35 Li     1.753033    5.061734    7.378027    ( 0.0000,  0.0000,  0.0000)
  36 Li     1.752346    1.013305    9.347116    ( 0.0000,  0.0000,  0.0000)
  37 Li     0.001411    4.049879    9.352916    ( 0.0000,  0.0000,  0.0000)
  38 Li     5.259998    1.010917    9.352930    ( 0.0000,  0.0000,  0.0000)
  39 Li     3.503480    4.050719    9.322022    ( 0.0000,  0.0000,  0.0000)
  40 Li     3.505136    0.000510   11.382420    ( 0.0000,  0.0000,  0.0000)
  41 Li     1.748953    3.036114   11.266575    ( 0.0000,  0.0000,  0.0000)
  42 Li     7.012181    0.004054   11.267288    ( 0.0000,  0.0000,  0.0000)
  43 Li     5.261979    3.036221   11.287466    ( 0.0000,  0.0000,  0.0000)
  44 Li    -0.002742    2.025799   11.382445    ( 0.0000,  0.0000,  0.0000)
  45 Li    -1.751629    5.063253   11.268139    ( 0.0000,  0.0000,  0.0000)
  46 Li     3.506342    2.022106   11.267501    ( 0.0000,  0.0000,  0.0000)
  47 Li     1.748799    5.064574   11.285771    ( 0.0000,  0.0000,  0.0000)
  48 N      1.753084    1.012487    3.439048    ( 0.0000,  0.0000,  0.0000)
  49 N     -0.000296    4.049430    3.439048    ( 0.0000,  0.0000,  0.0000)
  50 N      5.259794    1.012487    3.439048    ( 0.0000,  0.0000,  0.0000)
  51 N      3.506414    4.049430    3.439048    ( 0.0000,  0.0000,  0.0000)
  52 N      1.753031    1.012517    7.360963    ( 0.0000,  0.0000,  0.0000)
  53 N     -0.000349    4.049460    7.360963    ( 0.0000,  0.0000,  0.0000)
  54 N      5.259741    1.012517    7.360963    ( 0.0000,  0.0000,  0.0000)
  55 N      3.506361    4.049460    7.360963    ( 0.0000,  0.0000,  0.0000)
  56 N      1.751796    1.013118   11.296066    ( 0.0000,  0.0000,  0.0000)
  57 N     -0.001137    4.050190   11.308662    ( 0.0000,  0.0000,  0.0000)
  58 N      5.258912    1.012680   11.308662    ( 0.0000,  0.0000,  0.0000)
  59 N      3.504906    4.050322   11.238459    ( 0.0000,  0.0000,  0.0000)
  60 N      1.748265    1.011482   15.255667    ( 0.0000,  0.0000,  0.0000)
  61 N     -0.009896    4.052302   15.287404    ( 0.0000,  0.0000,  0.0000)
  62 N      5.259716    1.010660   15.287281    ( 0.0000,  0.0000,  0.0000)
  63 N      3.510787    4.058625   15.072220    ( 0.0000,  0.0000,  0.0000)
  64 Li     3.296984    3.594599   17.022398    ( 0.0000,  0.0000,  0.0000)

Unit cell:
           periodic     x           y           z      points  spacing
  1. axis:    yes    7.013420    0.000000    0.000000    40     0.1518
  2. axis:    yes   -3.506760    6.073886    0.000000    40     0.1518
  3. axis:    yes    0.000000    0.000000   29.936001   160     0.1871

  Lengths:   7.013420   7.013520  29.936001
  Angles:   90.000000  90.000000 120.000000

Effective grid spacing dv^(1/3) = 0.1708

                     log10-error:    total        iterations:
           time      wfs    density  energy       fermi  poisson
iter:   1  09:24:45                -275.386426    4             
iter:   2  09:25:24  -1.00  -0.51  -262.887271    5             
iter:   3  09:26:04  -0.41  -0.57  -280.437905    37            
iter:   4  09:26:44  -1.86  -0.53  -252.547794    35            
iter:   5  09:27:24  -2.71  -0.71  -250.556577    3             
iter:   6  09:28:03  -1.22  -0.72  -249.274081    34            
iter:   7  09:28:43  -1.30  -0.78  -243.292666    26            
iter:   8  09:29:22  -1.41  -0.88  -238.914135    4             
iter:   9  09:30:03  -1.78  -0.97  -240.576113    5             
iter:  10  09:30:42  -1.74  -0.91  -238.892303    4             
iter:  11  09:31:22  -2.25  -0.93  -236.877602    32            
iter:  12  09:32:03  -1.05  -0.96  -268.660372    36            
iter:  13  09:32:43  -0.24  -0.61  -346.496549    5             
iter:  14  09:33:23  -1.58  -0.42  -284.084453    35            
iter:  15  09:34:03  -2.13  -0.54  -288.969450    34            
iter:  16  09:34:43  -0.59  -0.52  -233.511372    31            
iter:  17  09:35:22  -1.40  -1.16  -233.535321    5             
iter:  18  09:36:03  -0.92  -1.20  -233.719008    4             
iter:  19  09:36:43  -0.64  -1.26  -235.348810    4             
iter:  20  09:37:23  -0.74  -1.32  -238.382709    3             
iter:  21  09:38:04  -0.70  -1.20  -240.224792    4             
iter:  22  09:38:44  -1.23  -1.12  -236.904657    28            
iter:  23  09:39:24  -1.90  -1.33  -235.901504    32            
iter:  24  09:40:04  -2.45  -1.31  -235.335017    4             
iter:  25  09:40:43  -2.70  -1.36  -235.449110    3             
iter:  26  09:41:24  -2.53  -1.39  -235.112218    3             
iter:  27  09:42:04  -2.75  -1.46  -235.454558    2             
iter:  28  09:42:43  -2.92  -1.43  -235.051212    3             
iter:  29  09:43:23  -3.17  -1.57  -235.009997    2             
iter:  30  09:44:03  -4.25  -1.63  -234.978414    3             
iter:  31  09:44:42  -2.66  -1.64  -234.823829    4             
iter:  32  09:45:23  -2.82  -1.74  -234.972898    5             
iter:  33  09:46:03  -3.64  -1.67  -234.849738    4             
iter:  34  09:46:43  -3.96  -1.77  -234.758979    4             
iter:  35  09:47:23  -3.25  -1.89  -234.966809    4             
iter:  36  09:48:03  -4.04  -1.72  -234.725755    4             
iter:  37  09:48:43  -3.99  -2.11  -234.740837    3             
iter:  38  09:49:22  -4.18  -2.04  -234.729698    3             
iter:  39  09:50:02  -4.12  -2.21  -234.750336    4             
iter:  40  09:50:43  -4.85  -2.14  -234.733836    3             
iter:  41  09:51:22  -3.58  -2.25  -234.715364    3             
iter:  42  09:52:02  -4.89  -2.44  -234.718339    3             
iter:  43  09:52:42  -5.19  -2.73  -234.714538    3             
iter:  44  09:53:22  -5.07  -2.49  -234.714539    3             
iter:  45  09:54:02  -5.22  -3.00  -234.714040    3             
iter:  46  09:54:43  -5.88  -3.00  -234.713691    2             
iter:  47  09:55:23  -5.18  -3.00  -234.713761    3             
iter:  48  09:56:03  -6.29  -3.21  -234.713995    2             
iter:  49  09:56:43  -5.70  -3.30  -234.714831    2             
iter:  50  09:57:24  -6.04  -3.26  -234.714206    2             
iter:  51  09:58:04  -6.47  -3.53  -234.714360    2             
iter:  52  09:58:43  -7.21  -3.66  -234.714114    2             
iter:  53  09:59:23  -6.91  -3.65  -234.714446    2             
iter:  54  10:00:03  -7.85  -3.87  -234.714371    2             
iter:  55  10:00:43  -7.29  -3.99  -234.714306    2             
iter:  56  10:01:24  -7.45  -4.03  -234.714284    2             

Converged after 56 iterations.

Dipole moment: (-2.260627, 1.357243, -11.336811) |e|*Ang

Energy contributions relative to reference atoms: (reference = -33644.147259)

Kinetic:       +256.672682
Potential:     -189.703719
External:        +0.000000
XC:            -300.366336
Entropy (-ST):   -0.075213
Local:           -1.279305
--------------------------
Free energy:   -234.751891
Extrapolated:  -234.714284

Fermi level: -0.23548

Showing only first 2 kpts
 Kpt  Band  Eigenvalues  Occupancy
  0    62     -0.53463    0.07980
  0    63     -0.02662    0.00121
  0    64     -0.00025    0.00072
  0    65      0.21125    0.00001

  1    62     -0.60887    0.15991
  1    63     -0.28857    0.11888
  1    64     -0.11708    0.01370
  1    65      0.38546    0.00000



Forces in eV/Ang:
  0 Li   -0.00007    0.00005   -0.04827
  1 Li   -0.00007    0.00005   -0.04833
  2 Li   -0.00008    0.00005   -0.04833
  3 Li   -0.00008    0.00005   -0.04807
  4 Li    0.00038    0.00221    0.00730
  5 Li   -0.00442    0.00069    0.06832
  6 Li   -0.00480    0.01175    0.06903
  7 Li    0.00973   -0.00357   -0.06785
  8 Li   -0.23855    0.14025    0.19997
  9 Li   -0.05081   -0.05957   -0.28139
 10 Li    0.12532   -0.10154    0.11072
 11 Li   -0.27311    0.07298   -0.22465
 12 Li    0.23972   -0.13263    0.20916
 13 Li   -0.16292    0.05256    0.11547
 14 Li   -0.03293   -0.07036   -0.29935
 15 Li    0.18173   -0.18789   -0.20772
 16 Li    0.00003   -0.00013   -0.04148
 17 Li    0.00002   -0.00008   -0.04154
 18 Li   -0.00002   -0.00015   -0.04158
 19 Li   -0.00000   -0.00011   -0.04158
 20 Li   -0.00010    0.00008   -0.04148
 21 Li   -0.00009    0.00004   -0.04163
 22 Li   -0.00005    0.00010   -0.04160
 23 Li   -0.00006    0.00006   -0.04147
 24 Li   -0.00003    0.00011   -0.04821
 25 Li    0.00022    0.00001   -0.04702
 26 Li    0.00001   -0.00015   -0.04702
 27 Li   -0.00022    0.00004   -0.05263
 28 Li    0.00050   -0.00040    0.01058
 29 Li   -0.00379   -0.00127    0.00059
 30 Li   -0.00070    0.00379    0.00176
 31 Li    0.00320   -0.00179    0.00753
 32 Li   -0.00158    0.00096    0.01056
 33 Li    0.00334    0.00081    0.00476
 34 Li    0.00116   -0.00320    0.00355
 35 Li   -0.00415    0.00256    0.00159
 36 Li    0.00031   -0.00284    0.00991
 37 Li   -0.00745   -0.00012    0.01493
 38 Li   -0.00151    0.00535    0.01477
 39 Li    0.00769   -0.00197   -0.02280
 40 Li   -0.00190    0.00436    0.00608
 41 Li    0.01133    0.00518    0.01549
 42 Li    0.00034   -0.01256    0.00548
 43 Li   -0.01819    0.00734    0.02284
 44 Li    0.00834   -0.00104    0.00616
 45 Li   -0.01220   -0.00586    0.01208
 46 Li   -0.00237    0.01347    0.02137
 47 Li    0.01334   -0.01150    0.00830
 48 N    -0.00019    0.00010    0.08560
 49 N    -0.00026    0.00017    0.09115
 50 N    -0.00020    0.00028    0.09123
 51 N    -0.00006    0.00022    0.08048
 52 N    -0.00032    0.00078    0.05648
 53 N     0.00179    0.00007    0.07367
 54 N     0.00013   -0.00139    0.07377
 55 N    -0.00226    0.00051   -0.04087
 56 N    -0.00441   -0.00251   -0.02956
 57 N     0.00384    0.00164   -0.03611
 58 N     0.00144   -0.00543   -0.03497
 59 N    -0.00111    0.00440   -0.07906
 60 N     0.12705    0.21559   -0.02252
 61 N     0.22240   -0.00645    0.03429
 62 N    -0.09472    0.14258    0.05056
 63 N    -0.18870   -0.34554    0.94863
 64 Li    0.14593    0.27134   -0.60840

System changes: positions 

Initializing position-dependent things.

Density initialized from wave functions
                                         
                                         
                                         
                                         
                                         
                      Li                 
           Li      Li                    
             Li        N  Li             
                 Li Lii                  
              LiN      LiN  Li           
                                         
           Li   Li Li    Li              
              N   Li   N  Li             
             Li      Li                  
              LiN   Li LiN  Li           
                                         
           Li N Li Li  N Li              
                  Li      Li             
             Li N    Li  N               
              Li    Li Li   Li           
           Li      Li                    
              N Li     N Li              
             Li   Li Li   Li             
                N        N               
              Li    Li Li   Li           
                                         
                Li       Li              
                                         
                                         
                                         
                                         

Positions:
   0 Li     1.753189    1.012426    1.530029    ( 0.0000,  0.0000,  0.0000)
   1 Li    -0.000191    4.049369    1.530029    ( 0.0000,  0.0000,  0.0000)
   2 Li     5.259899    1.012426    1.530029    ( 0.0000,  0.0000,  0.0000)
   3 Li     3.506519    4.049369    1.530029    ( 0.0000,  0.0000,  0.0000)
   4 Li     1.748195    1.016136   13.284675    ( 0.0000,  0.0000,  0.0000)
   5 Li     0.008111    4.052092   13.305739    ( 0.0000,  0.0000,  0.0000)
   6 Li     5.260917    1.003901   13.305678    ( 0.0000,  0.0000,  0.0000)
   7 Li     3.496920    4.053453   13.187932    ( 0.0000,  0.0000,  0.0000)
   8 Li     3.508202   -0.011377   15.956693    ( 0.0000,  0.0000,  0.0000)
   9 Li     1.679495    3.008686   15.109199    ( 0.0000,  0.0000,  0.0000)
  10 Li     7.003341    0.063608   15.127336    ( 0.0000,  0.0000,  0.0000)
  11 Li     5.334286    3.005173   15.239363    ( 0.0000,  0.0000,  0.0000)
  12 Li    -0.019739    2.025894   15.956936    ( 0.0000,  0.0000,  0.0000)
  13 Li    -1.693908    5.088070   15.111913    ( 0.0000,  0.0000,  0.0000)
  14 Li     3.515269    1.945005   15.092333    ( 0.0000,  0.0000,  0.0000)
  15 Li     1.690638    5.108084   15.271191    ( 0.0000,  0.0000,  0.0000)
  16 Li     3.506465    0.000182    3.465092    ( 0.0000,  0.0000,  0.0000)
  17 Li     1.753085    3.037125    3.465092    ( 0.0000,  0.0000,  0.0000)
  18 Li     7.013175    0.000182    3.465092    ( 0.0000,  0.0000,  0.0000)
  19 Li     5.259795    3.037125    3.465092    ( 0.0000,  0.0000,  0.0000)
  20 Li    -0.000262    2.024791    3.465092    ( 0.0000,  0.0000,  0.0000)
  21 Li    -1.753642    5.061734    3.465092    ( 0.0000,  0.0000,  0.0000)
  22 Li     3.506448    2.024791    3.465092    ( 0.0000,  0.0000,  0.0000)
  23 Li     1.753068    5.061734    3.465092    ( 0.0000,  0.0000,  0.0000)
  24 Li     1.753084    1.012487    5.431887    ( 0.0000,  0.0000,  0.0000)
  25 Li    -0.000296    4.049430    5.431887    ( 0.0000,  0.0000,  0.0000)
  26 Li     5.259794    1.012487    5.431887    ( 0.0000,  0.0000,  0.0000)
  27 Li     3.506414    4.049430    5.431887    ( 0.0000,  0.0000,  0.0000)
  28 Li     3.506429    0.000182    7.378027    ( 0.0000,  0.0000,  0.0000)
  29 Li     1.753049    3.037125    7.378027    ( 0.0000,  0.0000,  0.0000)
  30 Li     7.013139    0.000182    7.378027    ( 0.0000,  0.0000,  0.0000)
  31 Li     5.259759    3.037125    7.378027    ( 0.0000,  0.0000,  0.0000)
  32 Li    -0.000297    2.024791    7.378027    ( 0.0000,  0.0000,  0.0000)
  33 Li    -1.753677    5.061734    7.378027    ( 0.0000,  0.0000,  0.0000)
  34 Li     3.506413    2.024791    7.378027    ( 0.0000,  0.0000,  0.0000)
  35 Li     1.753033    5.061734    7.378027    ( 0.0000,  0.0000,  0.0000)
  36 Li     1.752353    1.013266    9.347188    ( 0.0000,  0.0000,  0.0000)
  37 Li     0.001301    4.049877    9.353130    ( 0.0000,  0.0000,  0.0000)
  38 Li     5.259975    1.010998    9.353141    ( 0.0000,  0.0000,  0.0000)
  39 Li     3.503594    4.050687    9.321759    ( 0.0000,  0.0000,  0.0000)
  40 Li     3.505117    0.000565   11.382272    ( 0.0000,  0.0000,  0.0000)
  41 Li     1.749121    3.036200   11.266791    ( 0.0000,  0.0000,  0.0000)
  42 Li     7.012181    0.003864   11.267367    ( 0.0000,  0.0000,  0.0000)
  43 Li     5.261716    3.036332   11.288016    ( 0.0000,  0.0000,  0.0000)
  44 Li    -0.002628    2.025785   11.382299    ( 0.0000,  0.0000,  0.0000)
  45 Li    -1.751809    5.063160   11.268310    ( 0.0000,  0.0000,  0.0000)
  46 Li     3.506315    2.022308   11.267799    ( 0.0000,  0.0000,  0.0000)
  47 Li     1.748998    5.064409   11.286117    ( 0.0000,  0.0000,  0.0000)
  48 N      1.753084    1.012487    3.439048    ( 0.0000,  0.0000,  0.0000)
  49 N     -0.000296    4.049430    3.439048    ( 0.0000,  0.0000,  0.0000)
  50 N      5.259794    1.012487    3.439048    ( 0.0000,  0.0000,  0.0000)
  51 N      3.506414    4.049430    3.439048    ( 0.0000,  0.0000,  0.0000)
  52 N      1.753031    1.012517    7.360963    ( 0.0000,  0.0000,  0.0000)
  53 N     -0.000349    4.049460    7.360963    ( 0.0000,  0.0000,  0.0000)
  54 N      5.259741    1.012517    7.360963    ( 0.0000,  0.0000,  0.0000)
  55 N      3.506361    4.049460    7.360963    ( 0.0000,  0.0000,  0.0000)
  56 N      1.751734    1.013081   11.295489    ( 0.0000,  0.0000,  0.0000)
  57 N     -0.001082    4.050215   11.308141    ( 0.0000,  0.0000,  0.0000)
  58 N      5.258934    1.012603   11.308156    ( 0.0000,  0.0000,  0.0000)
  59 N      3.504892    4.050385   11.237465    ( 0.0000,  0.0000,  0.0000)
  60 N      1.750063    1.014523   15.254939    ( 0.0000,  0.0000,  0.0000)
  61 N     -0.006760    4.052239   15.287875    ( 0.0000,  0.0000,  0.0000)
  62 N      5.258420    1.012662   15.287982    ( 0.0000,  0.0000,  0.0000)
  63 N      3.508142    4.053780   15.086141    ( 0.0000,  0.0000,  0.0000)
  64 Li     3.295982    3.593321   17.014681    ( 0.0000,  0.0000,  0.0000)

Unit cell:
           periodic     x           y           z      points  spacing
  1. axis:    yes    7.013420    0.000000    0.000000    40     0.1518
  2. axis:    yes   -3.506760    6.073886    0.000000    40     0.1518
  3. axis:    yes    0.000000    0.000000   29.936001   160     0.1871

  Lengths:   7.013420   7.013520  29.936001
  Angles:   90.000000  90.000000 120.000000

Effective grid spacing dv^(1/3) = 0.1708

                     log10-error:    total        iterations:
           time      wfs    density  energy       fermi  poisson
iter:   1  10:02:37  -3.72         -234.748653    2             
iter:   2  10:03:17  -4.95  -2.79  -234.744104    3             
iter:   3  10:03:57  -5.68  -2.62  -234.745044    3             
iter:   4  10:04:37  -4.70  -3.05  -234.743902    2             
iter:   5  10:05:17  -5.96  -3.36  -234.744224    2             
iter:   6  10:05:57  -5.59  -3.37  -234.743497    2             
iter:   7  10:06:38  -5.72  -3.67  -234.743562    2             
iter:   8  10:07:19  -6.27  -3.54  -234.743454    2             
iter:   9  10:07:59  -6.43  -3.80  -234.743521    2             
iter:  10  10:08:39  -7.26  -3.99  -234.743568    2             
iter:  11  10:09:20  -7.09  -4.13  -234.743694    2             

Converged after 11 iterations.

Dipole moment: (-2.262212, 1.363292, -11.345221) |e|*Ang

Energy contributions relative to reference atoms: (reference = -33644.147259)

Kinetic:       +256.726213
Potential:     -189.760313
External:        +0.000000
XC:            -300.388419
Entropy (-ST):   -0.074924
Local:           -1.283712
--------------------------
Free energy:   -234.781156
Extrapolated:  -234.743694

Fermi level: -0.23729

Showing only first 2 kpts
 Kpt  Band  Eigenvalues  Occupancy
  0    62     -0.54234    0.07982
  0    63     -0.02573    0.00115
  0    64     -0.00431    0.00075
  0    65      0.20836    0.00001

  1    62     -0.61224    0.15991
  1    63     -0.29019    0.11877
  1    64     -0.12063    0.01415
  1    65      0.38379    0.00000



Forces in eV/Ang:
  0 Li   -0.00007    0.00005   -0.04963
  1 Li   -0.00007    0.00005   -0.04969
  2 Li   -0.00007    0.00005   -0.04969
  3 Li   -0.00008    0.00005   -0.04947
  4 Li   -0.00129   -0.00025    0.00366
  5 Li   -0.00641    0.00280    0.06093
  6 Li   -0.00135    0.00966    0.06221
  7 Li    0.00946   -0.00267    0.00244
  8 Li   -0.21307    0.13065    0.19584
  9 Li   -0.04671   -0.06069   -0.26658
 10 Li    0.10379   -0.08491    0.11753
 11 Li   -0.23169    0.06555   -0.20198
 12 Li    0.21809   -0.11548    0.20417
 13 Li   -0.13508    0.04221    0.12268
 14 Li   -0.03476   -0.06911   -0.28320
 15 Li    0.15836   -0.15909   -0.18642
 16 Li    0.00003   -0.00014   -0.04147
 17 Li    0.00001   -0.00008   -0.04155
 18 Li   -0.00002   -0.00014   -0.04158
 19 Li    0.00001   -0.00011   -0.04159
 20 Li   -0.00010    0.00009   -0.04147
 21 Li   -0.00008    0.00004   -0.04163
 22 Li   -0.00005    0.00009   -0.04161
 23 Li   -0.00007    0.00007   -0.04148
 24 Li   -0.00002    0.00012   -0.04880
 25 Li    0.00022    0.00001   -0.04756
 26 Li    0.00000   -0.00014   -0.04756
 27 Li   -0.00022    0.00002   -0.05335
 28 Li    0.00057   -0.00040    0.01039
 29 Li   -0.00396   -0.00133    0.00031
 30 Li   -0.00078    0.00400    0.00133
 31 Li    0.00338   -0.00194    0.00705
 32 Li   -0.00158    0.00102    0.01038
 33 Li    0.00356    0.00088    0.00421
 34 Li    0.00116   -0.00339    0.00315
 35 Li   -0.00436    0.00263    0.00134
 36 Li    0.00036   -0.00267    0.00694
 37 Li   -0.00719   -0.00016    0.01150
 38 Li   -0.00151    0.00523    0.01140
 39 Li    0.00739   -0.00201   -0.02559
 40 Li   -0.00138    0.00345    0.00491
 41 Li    0.00813    0.00379    0.01198
 42 Li   -0.00013   -0.00898    0.00279
 43 Li   -0.01375    0.00523    0.01954
 44 Li    0.00681   -0.00079    0.00494
 45 Li   -0.00870   -0.00422    0.00908
 46 Li   -0.00206    0.00973    0.01755
 47 Li    0.00981   -0.00895    0.00565
 48 N    -0.00019    0.00011    0.08092
 49 N    -0.00027    0.00017    0.08666
 50 N    -0.00020    0.00026    0.08671
 51 N    -0.00009    0.00019    0.07483
 52 N    -0.00040    0.00061    0.06210
 53 N     0.00165    0.00017    0.07956
 54 N     0.00026   -0.00141    0.07971
 55 N    -0.00209    0.00072   -0.03596
 56 N    -0.00244   -0.00046   -0.01393
 57 N     0.00354    0.00053   -0.01771
 58 N    -0.00001   -0.00361   -0.01654
 59 N    -0.00145    0.00181   -0.05188
 60 N     0.10012    0.16852   -0.02048
 61 N     0.16468   -0.00021    0.03479
 62 N    -0.06546    0.10766    0.04921
 63 N    -0.15821   -0.29059    0.77927
 64 Li    0.13800    0.25586   -0.54816

System changes: positions 

Initializing position-dependent things.

Density initialized from wave functions
                                         
                                         
                                         
                                         
                                         
                      Li                 
           Li      Li                    
             Li  Li    N  Li             
                    Lii                  
              LiN      LiN  Li           
                                         
           Li N Li Li    Li              
                  Li   N  Li             
             Li N    Li  N               
              Li    Li Li   Li           
                                         
           Li N Li Li  N Li              
                  Li      Li             
             Li N    Li  N               
              Li    Li Li   Li           
           Li      Li                    
              N Li     N Li              
             Li   Li Li   Li             
                N        N               
              Li    Li Li   Li           
                                         
                Li       Li              
                                         
                                         
                                         
                                         

Positions:
   0 Li     1.753189    1.012426    1.530029    ( 0.0000,  0.0000,  0.0000)
   1 Li    -0.000191    4.049369    1.530029    ( 0.0000,  0.0000,  0.0000)
   2 Li     5.259899    1.012426    1.530029    ( 0.0000,  0.0000,  0.0000)
   3 Li     3.506519    4.049369    1.530029    ( 0.0000,  0.0000,  0.0000)
   4 Li     1.748103    1.016061   13.283298    ( 0.0000,  0.0000,  0.0000)
   5 Li     0.007214    4.052406   13.312816    ( 0.0000,  0.0000,  0.0000)
   6 Li     5.260768    1.005160   13.312895    ( 0.0000,  0.0000,  0.0000)
   7 Li     3.498132    4.053061   13.189551    ( 0.0000,  0.0000,  0.0000)
   8 Li     3.484049    0.002641   15.967153    ( 0.0000,  0.0000,  0.0000)
   9 Li     1.673848    3.003324   15.075335    ( 0.0000,  0.0000,  0.0000)
  10 Li     7.014707    0.051983   15.140748    ( 0.0000,  0.0000,  0.0000)
  11 Li     5.306680    3.013999   15.228287    ( 0.0000,  0.0000,  0.0000)
  12 Li     0.004452    2.012363   15.968397    ( 0.0000,  0.0000,  0.0000)
  13 Li    -1.710815    5.091461   15.126146    ( 0.0000,  0.0000,  0.0000)
  14 Li     3.512797    1.937657   15.056580    ( 0.0000,  0.0000,  0.0000)
  15 Li     1.710315    5.089633   15.261465    ( 0.0000,  0.0000,  0.0000)
  16 Li     3.506465    0.000182    3.465092    ( 0.0000,  0.0000,  0.0000)
  17 Li     1.753085    3.037125    3.465092    ( 0.0000,  0.0000,  0.0000)
  18 Li     7.013175    0.000182    3.465092    ( 0.0000,  0.0000,  0.0000)
  19 Li     5.259795    3.037125    3.465092    ( 0.0000,  0.0000,  0.0000)
  20 Li    -0.000262    2.024791    3.465092    ( 0.0000,  0.0000,  0.0000)
  21 Li    -1.753642    5.061734    3.465092    ( 0.0000,  0.0000,  0.0000)
  22 Li     3.506448    2.024791    3.465092    ( 0.0000,  0.0000,  0.0000)
  23 Li     1.753068    5.061734    3.465092    ( 0.0000,  0.0000,  0.0000)
  24 Li     1.753084    1.012487    5.431887    ( 0.0000,  0.0000,  0.0000)
  25 Li    -0.000296    4.049430    5.431887    ( 0.0000,  0.0000,  0.0000)
  26 Li     5.259794    1.012487    5.431887    ( 0.0000,  0.0000,  0.0000)
  27 Li     3.506414    4.049430    5.431887    ( 0.0000,  0.0000,  0.0000)
  28 Li     3.506429    0.000182    7.378027    ( 0.0000,  0.0000,  0.0000)
  29 Li     1.753049    3.037125    7.378027    ( 0.0000,  0.0000,  0.0000)
  30 Li     7.013139    0.000182    7.378027    ( 0.0000,  0.0000,  0.0000)
  31 Li     5.259759    3.037125    7.378027    ( 0.0000,  0.0000,  0.0000)
  32 Li    -0.000297    2.024791    7.378027    ( 0.0000,  0.0000,  0.0000)
  33 Li    -1.753677    5.061734    7.378027    ( 0.0000,  0.0000,  0.0000)
  34 Li     3.506413    2.024791    7.378027    ( 0.0000,  0.0000,  0.0000)
  35 Li     1.753033    5.061734    7.378027    ( 0.0000,  0.0000,  0.0000)
  36 Li     1.752411    1.012963    9.347500    ( 0.0000,  0.0000,  0.0000)
  37 Li     0.000443    4.049852    9.354484    ( 0.0000,  0.0000,  0.0000)
  38 Li     5.259787    1.011633    9.354483    ( 0.0000,  0.0000,  0.0000)
  39 Li     3.504484    4.050426    9.319269    ( 0.0000,  0.0000,  0.0000)
  40 Li     3.505009    0.000924   11.381122    ( 0.0000,  0.0000,  0.0000)
  41 Li     1.750125    3.036730   11.268158    ( 0.0000,  0.0000,  0.0000)
  42 Li     7.012138    0.002728   11.267696    ( 0.0000,  0.0000,  0.0000)
  43 Li     5.260081    3.036987   11.291945    ( 0.0000,  0.0000,  0.0000)
  44 Li    -0.001868    2.025699   11.381150    ( 0.0000,  0.0000,  0.0000)
  45 Li    -1.752878    5.062603   11.269360    ( 0.0000,  0.0000,  0.0000)
  46 Li     3.506123    2.023526   11.269798    ( 0.0000,  0.0000,  0.0000)
  47 Li     1.750213    5.063352   11.288458    ( 0.0000,  0.0000,  0.0000)
  48 N      1.753084    1.012487    3.439048    ( 0.0000,  0.0000,  0.0000)
  49 N     -0.000296    4.049430    3.439048    ( 0.0000,  0.0000,  0.0000)
  50 N      5.259794    1.012487    3.439048    ( 0.0000,  0.0000,  0.0000)
  51 N      3.506414    4.049430    3.439048    ( 0.0000,  0.0000,  0.0000)
  52 N      1.753031    1.012517    7.360963    ( 0.0000,  0.0000,  0.0000)
  53 N     -0.000349    4.049460    7.360963    ( 0.0000,  0.0000,  0.0000)
  54 N      5.259741    1.012517    7.360963    ( 0.0000,  0.0000,  0.0000)
  55 N      3.506361    4.049460    7.360963    ( 0.0000,  0.0000,  0.0000)
  56 N      1.751447    1.013010   11.292691    ( 0.0000,  0.0000,  0.0000)
  57 N     -0.000674    4.050285   11.305968    ( 0.0000,  0.0000,  0.0000)
  58 N      5.258954    1.012181   11.306119    ( 0.0000,  0.0000,  0.0000)
  59 N      3.504745    4.050613   11.232343    ( 0.0000,  0.0000,  0.0000)
  60 N      1.761825    1.034260   15.249637    ( 0.0000,  0.0000,  0.0000)
  61 N      0.012437    4.052347   15.291776    ( 0.0000,  0.0000,  0.0000)
  62 N      5.250997    1.025154   15.293558    ( 0.0000,  0.0000,  0.0000)
  63 N      3.489769    4.020049   15.180158    ( 0.0000,  0.0000,  0.0000)
  64 Li     3.289342    3.585204   16.957856    ( 0.0000,  0.0000,  0.0000)

Unit cell:
           periodic     x           y           z      points  spacing
  1. axis:    yes    7.013420    0.000000    0.000000    40     0.1518
  2. axis:    yes   -3.506760    6.073886    0.000000    40     0.1518
  3. axis:    yes    0.000000    0.000000   29.936001   160     0.1871

  Lengths:   7.013420   7.013520  29.936001
  Angles:   90.000000  90.000000 120.000000

Effective grid spacing dv^(1/3) = 0.1708

                     log10-error:    total        iterations:
           time      wfs    density  energy       fermi  poisson
iter:   1  10:12:10  -2.07         -234.943799    3             
iter:   2  10:12:50  -3.15  -1.94  -235.050762    5             
iter:   3  10:13:30  -4.05  -1.86  -234.882242    4             
iter:   4  10:14:10  -3.15  -2.18  -235.019528    4             
iter:   5  10:14:49  -4.16  -1.79  -234.825855    4             
iter:   6  10:15:30  -4.31  -2.47  -234.834665    3             
iter:   7  10:16:10  -3.94  -2.50  -234.835611    4             
iter:   8  10:16:51  -4.91  -2.21  -234.822222    2             
iter:   9  10:17:32  -5.48  -2.82  -234.818318    2             
iter:  10  10:18:13  -4.92  -2.82  -234.821847    3             
iter:  11  10:18:53  -5.70  -2.97  -234.819246    2             
iter:  12  10:19:34  -6.29  -3.40  -234.818605    2             
iter:  13  10:20:14  -6.47  -3.47  -234.818753    2             
iter:  14  10:20:55  -6.02  -3.64  -234.818571    2             
iter:  15  10:21:35  -6.80  -3.66  -234.818650    2             
iter:  16  10:22:16  -6.74  -3.76  -234.818665    2             
iter:  17  10:22:56  -7.10  -3.87  -234.818779    2             
iter:  18  10:23:37  -7.50  -4.10  -234.818779    2             

Converged after 18 iterations.

Dipole moment: (-2.253548, 1.379197, -11.359850) |e|*Ang

Energy contributions relative to reference atoms: (reference = -33644.147259)

Kinetic:       +257.519035
Potential:     -190.377873
External:        +0.000000
XC:            -300.638052
Entropy (-ST):   -0.075479
Local:           -1.284149
--------------------------
Free energy:   -234.856519
Extrapolated:  -234.818779

Fermi level: -0.24558

Showing only first 2 kpts
 Kpt  Band  Eigenvalues  Occupancy
  0    62     -0.55937    0.07985
  0    63     -0.02909    0.00104
  0    64     -0.01382    0.00077
  0    65      0.18755    0.00001

  1    62     -0.62208    0.15991
  1    63     -0.29371    0.11578
  1    64     -0.13768    0.01657
  1    65      0.37064    0.00000



Forces in eV/Ang:
  0 Li   -0.00007    0.00006   -0.05039
  1 Li   -0.00007    0.00005   -0.05046
  2 Li   -0.00008    0.00005   -0.05046
  3 Li   -0.00008    0.00005   -0.05028
  4 Li   -0.01581   -0.02230   -0.02320
  5 Li   -0.02235    0.01918    0.01007
  6 Li    0.02570   -0.00733    0.01449
  7 Li    0.00313   -0.00019    0.28529
  8 Li   -0.03128    0.06980    0.16111
  9 Li   -0.02057   -0.05974   -0.14945
 10 Li   -0.03869    0.02568    0.15419
 11 Li    0.03240   -0.01031   -0.04195
 12 Li    0.07155    0.00955    0.16408
 13 Li    0.04629   -0.02349    0.16133
 14 Li   -0.03814   -0.05788   -0.15497
 15 Li   -0.01332    0.01446   -0.03627
 16 Li    0.00005   -0.00014   -0.04262
 17 Li   -0.00006   -0.00010   -0.04283
 18 Li   -0.00004   -0.00007   -0.04280
 19 Li    0.00007   -0.00015   -0.04277
 20 Li   -0.00011    0.00010   -0.04262
 21 Li   -0.00001    0.00006   -0.04283
 22 Li   -0.00003    0.00002   -0.04287
 23 Li   -0.00014    0.00011   -0.04271
 24 Li   -0.00008   -0.00003   -0.05144
 25 Li    0.00008    0.00005   -0.04993
 26 Li    0.00007   -0.00013   -0.04994
 27 Li   -0.00008    0.00013   -0.05677
 28 Li    0.00102   -0.00076    0.01010
 29 Li   -0.00553   -0.00156   -0.00054
 30 Li   -0.00127    0.00541   -0.00035
 31 Li    0.00498   -0.00275    0.00469
 32 Li   -0.00184    0.00113    0.01011
 33 Li    0.00496    0.00148    0.00150
 34 Li    0.00138   -0.00494    0.00122
 35 Li   -0.00573    0.00347    0.00107
 36 Li    0.00106   -0.00083   -0.00922
 37 Li   -0.00483   -0.00070   -0.00763
 38 Li   -0.00190    0.00448   -0.00724
 39 Li    0.00493   -0.00270   -0.02847
 40 Li    0.00319   -0.00126    0.00707
 41 Li   -0.00999   -0.00416   -0.00046
 42 Li   -0.00390    0.01193   -0.00512
 43 Li    0.01248   -0.00869    0.00721
 44 Li   -0.00284    0.00244    0.00658
 45 Li    0.01245    0.00465   -0.00130
 46 Li   -0.00038   -0.01182    0.00260
 47 Li   -0.01201    0.00533   -0.00127
 48 N    -0.00017    0.00017    0.08747
 49 N    -0.00026    0.00013    0.09456
 50 N    -0.00022    0.00018    0.09478
 51 N    -0.00026   -0.00004    0.08088
 52 N    -0.00050   -0.00004    0.06652
 53 N     0.00070    0.00038    0.08554
 54 N     0.00048   -0.00093    0.08577
 55 N    -0.00101    0.00106   -0.03600
 56 N     0.00112   -0.00105    0.02311
 57 N    -0.00479   -0.00146    0.03321
 58 N    -0.00094    0.00291    0.03486
 59 N     0.00371   -0.00059    0.06593
 60 N    -0.07366   -0.13086   -0.07909
 61 N    -0.14603    0.03487   -0.06262
 62 N     0.09123   -0.08159   -0.05755
 63 N     0.07954    0.14750   -0.58488
 64 Li    0.04521    0.06942    0.14012

System changes: positions 

Initializing position-dependent things.

Density initialized from wave functions
                                         
                                         
                                         
                                         
                                         
                      Li                 
           Li      Li                    
             Li  Li    N  Li             
                    Lii                  
              LiN      LiN  Li           
                                         
           Li N Li Li    Li              
                  Li   N  Li             
             Li N    Li  N               
              Li    Li Li   Li           
                                         
           Li N Li Li  N Li              
                  Li      Li             
             Li N    Li  N               
              Li    Li Li   Li           
           Li      Li                    
              N Li     N Li              
             Li   Li Li   Li             
                N        N               
              Li    Li Li   Li           
                                         
                Li       Li              
                                         
                                         
                                         
                                         

Positions:
   0 Li     1.753189    1.012426    1.530029    ( 0.0000,  0.0000,  0.0000)
   1 Li    -0.000191    4.049369    1.530029    ( 0.0000,  0.0000,  0.0000)
   2 Li     5.259899    1.012426    1.530029    ( 0.0000,  0.0000,  0.0000)
   3 Li     3.506519    4.049369    1.530029    ( 0.0000,  0.0000,  0.0000)
   4 Li     1.747867    1.015725   13.282762    ( 0.0000,  0.0000,  0.0000)
   5 Li     0.006804    4.052713   13.313557    ( 0.0000,  0.0000,  0.0000)
   6 Li     5.261136    1.005159   13.313710    ( 0.0000,  0.0000,  0.0000)
   7 Li     3.498279    4.053021   13.193797    ( 0.0000,  0.0000,  0.0000)
   8 Li     3.481583    0.004801   15.969732    ( 0.0000,  0.0000,  0.0000)
   9 Li     1.673099    3.002115   15.070198    ( 0.0000,  0.0000,  0.0000)
  10 Li     7.015073    0.051309   15.144071    ( 0.0000,  0.0000,  0.0000)
  11 Li     5.304744    3.014655   15.227419    ( 0.0000,  0.0000,  0.0000)
  12 Li     0.007502    2.011356   15.971106    ( 0.0000,  0.0000,  0.0000)
  13 Li    -1.711612    5.091347   15.129650    ( 0.0000,  0.0000,  0.0000)
  14 Li     3.512121    1.936277   15.051212    ( 0.0000,  0.0000,  0.0000)
  15 Li     1.711868    5.088255   15.260763    ( 0.0000,  0.0000,  0.0000)
  16 Li     3.506465    0.000182    3.465092    ( 0.0000,  0.0000,  0.0000)
  17 Li     1.753085    3.037125    3.465092    ( 0.0000,  0.0000,  0.0000)
  18 Li     7.013175    0.000182    3.465092    ( 0.0000,  0.0000,  0.0000)
  19 Li     5.259795    3.037125    3.465092    ( 0.0000,  0.0000,  0.0000)
  20 Li    -0.000262    2.024791    3.465092    ( 0.0000,  0.0000,  0.0000)
  21 Li    -1.753642    5.061734    3.465092    ( 0.0000,  0.0000,  0.0000)
  22 Li     3.506448    2.024791    3.465092    ( 0.0000,  0.0000,  0.0000)
  23 Li     1.753068    5.061734    3.465092    ( 0.0000,  0.0000,  0.0000)
  24 Li     1.753084    1.012487    5.431887    ( 0.0000,  0.0000,  0.0000)
  25 Li    -0.000296    4.049430    5.431887    ( 0.0000,  0.0000,  0.0000)
  26 Li     5.259794    1.012487    5.431887    ( 0.0000,  0.0000,  0.0000)
  27 Li     3.506414    4.049430    5.431887    ( 0.0000,  0.0000,  0.0000)
  28 Li     3.506429    0.000182    7.378027    ( 0.0000,  0.0000,  0.0000)
  29 Li     1.753049    3.037125    7.378027    ( 0.0000,  0.0000,  0.0000)
  30 Li     7.013139    0.000182    7.378027    ( 0.0000,  0.0000,  0.0000)
  31 Li     5.259759    3.037125    7.378027    ( 0.0000,  0.0000,  0.0000)
  32 Li    -0.000297    2.024791    7.378027    ( 0.0000,  0.0000,  0.0000)
  33 Li    -1.753677    5.061734    7.378027    ( 0.0000,  0.0000,  0.0000)
  34 Li     3.506413    2.024791    7.378027    ( 0.0000,  0.0000,  0.0000)
  35 Li     1.753033    5.061734    7.378027    ( 0.0000,  0.0000,  0.0000)
  36 Li     1.752431    1.012927    9.347368    ( 0.0000,  0.0000,  0.0000)
  37 Li     0.000303    4.049840    9.354488    ( 0.0000,  0.0000,  0.0000)
  38 Li     5.259744    1.011750    9.354492    ( 0.0000,  0.0000,  0.0000)
  39 Li     3.504629    4.050365    9.318690    ( 0.0000,  0.0000,  0.0000)
  40 Li     3.505049    0.000935   11.381051    ( 0.0000,  0.0000,  0.0000)
  41 Li     1.750066    3.036717   11.268268    ( 0.0000,  0.0000,  0.0000)
  42 Li     7.012076    0.002803   11.267652    ( 0.0000,  0.0000,  0.0000)
  43 Li     5.260124    3.036917   11.292458    ( 0.0000,  0.0000,  0.0000)
  44 Li    -0.001846    2.025729   11.381071    ( 0.0000,  0.0000,  0.0000)
  45 Li    -1.752787    5.062621   11.269428    ( 0.0000,  0.0000,  0.0000)
  46 Li     3.506104    2.023459   11.270003    ( 0.0000,  0.0000,  0.0000)
  47 Li     1.750142    5.063340   11.288721    ( 0.0000,  0.0000,  0.0000)
  48 N      1.753084    1.012487    3.439048    ( 0.0000,  0.0000,  0.0000)
  49 N     -0.000296    4.049430    3.439048    ( 0.0000,  0.0000,  0.0000)
  50 N      5.259794    1.012487    3.439048    ( 0.0000,  0.0000,  0.0000)
  51 N      3.506414    4.049430    3.439048    ( 0.0000,  0.0000,  0.0000)
  52 N      1.753031    1.012517    7.360963    ( 0.0000,  0.0000,  0.0000)
  53 N     -0.000349    4.049460    7.360963    ( 0.0000,  0.0000,  0.0000)
  54 N      5.259741    1.012517    7.360963    ( 0.0000,  0.0000,  0.0000)
  55 N      3.506361    4.049460    7.360963    ( 0.0000,  0.0000,  0.0000)
  56 N      1.751435    1.012979   11.292705    ( 0.0000,  0.0000,  0.0000)
  57 N     -0.000713    4.050273   11.306224    ( 0.0000,  0.0000,  0.0000)
  58 N      5.258948    1.012186   11.306410    ( 0.0000,  0.0000,  0.0000)
  59 N      3.504792    4.050632   11.232896    ( 0.0000,  0.0000,  0.0000)
  60 N      1.761778    1.034076   15.247896    ( 0.0000,  0.0000,  0.0000)
  61 N      0.011970    4.052847   15.291126    ( 0.0000,  0.0000,  0.0000)
  62 N      5.251664    1.025040   15.293121    ( 0.0000,  0.0000,  0.0000)
  63 N      3.489355    4.019323   15.179464    ( 0.0000,  0.0000,  0.0000)
  64 Li     3.288317    3.583639   16.955669    ( 0.0000,  0.0000,  0.0000)

Unit cell:
           periodic     x           y           z      points  spacing
  1. axis:    yes    7.013420    0.000000    0.000000    40     0.1518
  2. axis:    yes   -3.506760    6.073886    0.000000    40     0.1518
  3. axis:    yes    0.000000    0.000000   29.936001   160     0.1871

  Lengths:   7.013420   7.013520  29.936001
  Angles:   90.000000  90.000000 120.000000

Effective grid spacing dv^(1/3) = 0.1708

                     log10-error:    total        iterations:
           time      wfs    density  energy       fermi  poisson
iter:   1  10:28:57  -4.24         -234.823194    3             
iter:   2  10:29:38  -5.23  -3.12  -234.828795    2             
iter:   3  10:30:18  -6.07  -2.87  -234.824648    2             
iter:   4  10:30:58  -5.57  -3.37  -234.823801    2             
iter:   5  10:31:38  -6.92  -3.58  -234.823870    2             
iter:   6  10:32:18  -6.54  -3.65  -234.823864    2             
iter:   7  10:32:58  -6.37  -3.77  -234.824048    2             
iter:   8  10:33:38  -7.71  -3.96  -234.824023    2             
iter:   9  10:34:20  -6.41  -4.02  -234.824116    2             
iter:  10  10:35:01  -7.82  -4.11  -234.824063    2             

Converged after 10 iterations.

Dipole moment: (-2.227808, 1.358252, -11.358823) |e|*Ang

Energy contributions relative to reference atoms: (reference = -33644.147259)

Kinetic:       +257.501971
Potential:     -190.366152
External:        +0.000000
XC:            -300.633754
Entropy (-ST):   -0.075386
Local:           -1.288435
--------------------------
Free energy:   -234.861756
Extrapolated:  -234.824063

Fermi level: -0.24529

Showing only first 2 kpts
 Kpt  Band  Eigenvalues  Occupancy
  0    62     -0.56029    0.07985
  0    63     -0.03126    0.00109
  0    64     -0.01203    0.00075
  0    65      0.18880    0.00001

  1    62     -0.62393    0.15992
  1    63     -0.29344    0.11579
  1    64     -0.13863    0.01694
  1    65      0.37145    0.00000



Forces in eV/Ang:
  0 Li   -0.00007    0.00005   -0.05081
  1 Li   -0.00007    0.00005   -0.05087
  2 Li   -0.00007    0.00005   -0.05088
  3 Li   -0.00008    0.00005   -0.05071
  4 Li   -0.02071   -0.03064   -0.02611
  5 Li   -0.02679    0.02245    0.00195
  6 Li    0.03127   -0.01047    0.00638
  7 Li    0.00581    0.00576    0.24511
  8 Li   -0.01490    0.06130    0.15455
  9 Li   -0.02362   -0.05282   -0.14080
 10 Li   -0.04129    0.02873    0.14556
 11 Li    0.04930   -0.02164   -0.03537
 12 Li    0.05608    0.01908    0.15702
 13 Li    0.04996   -0.02401    0.15255
 14 Li   -0.03040   -0.05636   -0.14505
 15 Li   -0.03174    0.02364   -0.03029
 16 Li    0.00005   -0.00014   -0.04230
 17 Li   -0.00005   -0.00010   -0.04248
 18 Li   -0.00004   -0.00007   -0.04249
 19 Li    0.00007   -0.00015   -0.04244
 20 Li   -0.00011    0.00011   -0.04230
 21 Li   -0.00001    0.00005   -0.04251
 22 Li   -0.00003    0.00003   -0.04251
 23 Li   -0.00014    0.00010   -0.04239
 24 Li   -0.00002    0.00005   -0.05161
 25 Li    0.00012    0.00002   -0.05003
 26 Li    0.00001   -0.00009   -0.05004
 27 Li   -0.00012    0.00003   -0.05699
 28 Li    0.00108   -0.00068    0.01049
 29 Li   -0.00564   -0.00166   -0.00030
 30 Li   -0.00134    0.00560   -0.00003
 31 Li    0.00509   -0.00293    0.00470
 32 Li   -0.00177    0.00121    0.01051
 33 Li    0.00515    0.00156    0.00165
 34 Li    0.00130   -0.00508    0.00128
 35 Li   -0.00592    0.00346    0.00141
 36 Li    0.00087   -0.00103   -0.00764
 37 Li   -0.00473   -0.00063   -0.00603
 38 Li   -0.00169    0.00419   -0.00556
 39 Li    0.00483   -0.00233   -0.01848
 40 Li    0.00290   -0.00191    0.00676
 41 Li   -0.00851   -0.00295    0.00013
 42 Li   -0.00336    0.00948   -0.00371
 43 Li    0.01097   -0.00694    0.00814
 44 Li   -0.00332    0.00183    0.00621
 45 Li    0.01002    0.00380   -0.00017
 46 Li    0.00004   -0.00988    0.00298
 47 Li   -0.00977    0.00498    0.00019
 48 N    -0.00020    0.00011    0.08466
 49 N    -0.00028    0.00015    0.09207
 50 N    -0.00019    0.00015    0.09230
 51 N    -0.00024    0.00002    0.07853
 52 N    -0.00030    0.00021    0.06519
 53 N     0.00075    0.00027    0.08497
 54 N     0.00027   -0.00071    0.08525
 55 N    -0.00105    0.00072   -0.03888
 56 N     0.00134   -0.00032    0.01777
 57 N    -0.00408   -0.00149    0.03313
 58 N    -0.00121    0.00279    0.03493
 59 N     0.00299   -0.00120    0.07414
 60 N    -0.07340   -0.12975   -0.06360
 61 N    -0.13451    0.03162   -0.04950
 62 N     0.08363   -0.07494   -0.04522
 63 N     0.08029    0.14712   -0.53715
 64 Li    0.04221    0.06327    0.14706

System changes: positions 

Initializing position-dependent things.

Density initialized from wave functions
                                         
                                         
                                         
                                         
                                         
                      Li                 
           Li      Li                    
             Li        N  Li             
                 Li Lii                  
              LiN      LiN  Li           
                                         
           Li N Li Li    Li              
                  Li   N  Li             
             Li N    Li  N               
              Li    Li Li   Li           
                                         
           Li N Li Li  N Li              
                  Li      Li             
             Li N    Li  N               
              Li    Li Li   Li           
           Li      Li                    
              N Li     N Li              
             Li   Li Li   Li             
                N        N               
              Li    Li Li   Li           
                                         
                Li       Li              
                                         
                                         
                                         
                                         

Positions:
   0 Li     1.753189    1.012426    1.530029    ( 0.0000,  0.0000,  0.0000)
   1 Li    -0.000191    4.049369    1.530029    ( 0.0000,  0.0000,  0.0000)
   2 Li     5.259899    1.012426    1.530029    ( 0.0000,  0.0000,  0.0000)
   3 Li     3.506519    4.049369    1.530029    ( 0.0000,  0.0000,  0.0000)
   4 Li     1.744615    1.010918   13.276785    ( 0.0000,  0.0000,  0.0000)
   5 Li     0.001892    4.056502   13.318602    ( 0.0000,  0.0000,  0.0000)
   6 Li     5.266069    1.004333   13.319560    ( 0.0000,  0.0000,  0.0000)
   7 Li     3.499855    4.053413   13.237051    ( 0.0000,  0.0000,  0.0000)
   8 Li     3.463748    0.023645   15.994827    ( 0.0000,  0.0000,  0.0000)
   9 Li     1.666151    2.990984   15.024230    ( 0.0000,  0.0000,  0.0000)
  10 Li     7.014975    0.048032   15.176374    ( 0.0000,  0.0000,  0.0000)
  11 Li     5.294211    3.017720   15.222175    ( 0.0000,  0.0000,  0.0000)
  12 Li     0.032153    2.005703   15.997271    ( 0.0000,  0.0000,  0.0000)
  13 Li    -1.714372    5.088811   15.163711    ( 0.0000,  0.0000,  0.0000)
  14 Li     3.506163    1.923255   15.003409    ( 0.0000,  0.0000,  0.0000)
  15 Li     1.720587    5.080000   15.256871    ( 0.0000,  0.0000,  0.0000)
  16 Li     3.506465    0.000182    3.465092    ( 0.0000,  0.0000,  0.0000)
  17 Li     1.753085    3.037125    3.465092    ( 0.0000,  0.0000,  0.0000)
  18 Li     7.013175    0.000182    3.465092    ( 0.0000,  0.0000,  0.0000)
  19 Li     5.259795    3.037125    3.465092    ( 0.0000,  0.0000,  0.0000)
  20 Li    -0.000262    2.024791    3.465092    ( 0.0000,  0.0000,  0.0000)
  21 Li    -1.753642    5.061734    3.465092    ( 0.0000,  0.0000,  0.0000)
  22 Li     3.506448    2.024791    3.465092    ( 0.0000,  0.0000,  0.0000)
  23 Li     1.753068    5.061734    3.465092    ( 0.0000,  0.0000,  0.0000)
  24 Li     1.753084    1.012487    5.431887    ( 0.0000,  0.0000,  0.0000)
  25 Li    -0.000296    4.049430    5.431887    ( 0.0000,  0.0000,  0.0000)
  26 Li     5.259794    1.012487    5.431887    ( 0.0000,  0.0000,  0.0000)
  27 Li     3.506414    4.049430    5.431887    ( 0.0000,  0.0000,  0.0000)
  28 Li     3.506429    0.000182    7.378027    ( 0.0000,  0.0000,  0.0000)
  29 Li     1.753049    3.037125    7.378027    ( 0.0000,  0.0000,  0.0000)
  30 Li     7.013139    0.000182    7.378027    ( 0.0000,  0.0000,  0.0000)
  31 Li     5.259759    3.037125    7.378027    ( 0.0000,  0.0000,  0.0000)
  32 Li    -0.000297    2.024791    7.378027    ( 0.0000,  0.0000,  0.0000)
  33 Li    -1.753677    5.061734    7.378027    ( 0.0000,  0.0000,  0.0000)
  34 Li     3.506413    2.024791    7.378027    ( 0.0000,  0.0000,  0.0000)
  35 Li     1.753033    5.061734    7.378027    ( 0.0000,  0.0000,  0.0000)
  36 Li     1.752623    1.012594    9.345940    ( 0.0000,  0.0000,  0.0000)
  37 Li    -0.000986    4.049717    9.354245    ( 0.0000,  0.0000,  0.0000)
  38 Li     5.259342    1.012833    9.354316    ( 0.0000,  0.0000,  0.0000)
  39 Li     3.505959    4.049804    9.314132    ( 0.0000,  0.0000,  0.0000)
  40 Li     3.505509    0.000862   11.380604    ( 0.0000,  0.0000,  0.0000)
  41 Li     1.749214    3.036528   11.269121    ( 0.0000,  0.0000,  0.0000)
  42 Li     7.011447    0.003773   11.267190    ( 0.0000,  0.0000,  0.0000)
  43 Li     5.261014    3.036085   11.297047    ( 0.0000,  0.0000,  0.0000)
  44 Li    -0.001925    2.026030   11.380534    ( 0.0000,  0.0000,  0.0000)
  45 Li    -1.751665    5.062921   11.269968    ( 0.0000,  0.0000,  0.0000)
  46 Li     3.506001    2.022496   11.271683    ( 0.0000,  0.0000,  0.0000)
  47 Li     1.749171    5.063528   11.291076    ( 0.0000,  0.0000,  0.0000)
  48 N      1.753084    1.012487    3.439048    ( 0.0000,  0.0000,  0.0000)
  49 N     -0.000296    4.049430    3.439048    ( 0.0000,  0.0000,  0.0000)
  50 N      5.259794    1.012487    3.439048    ( 0.0000,  0.0000,  0.0000)
  51 N      3.506414    4.049430    3.439048    ( 0.0000,  0.0000,  0.0000)
  52 N      1.753031    1.012517    7.360963    ( 0.0000,  0.0000,  0.0000)
  53 N     -0.000349    4.049460    7.360963    ( 0.0000,  0.0000,  0.0000)
  54 N      5.259741    1.012517    7.360963    ( 0.0000,  0.0000,  0.0000)
  55 N      3.506361    4.049460    7.360963    ( 0.0000,  0.0000,  0.0000)
  56 N      1.751418    1.012745   11.293236    ( 0.0000,  0.0000,  0.0000)
  57 N     -0.001223    4.050104   11.309911    ( 0.0000,  0.0000,  0.0000)
  58 N      5.258831    1.012376   11.310469    ( 0.0000,  0.0000,  0.0000)
  59 N      3.505299    4.050704   11.241999    ( 0.0000,  0.0000,  0.0000)
  60 N      1.757164    1.025209   15.231715    ( 0.0000,  0.0000,  0.0000)
  61 N      0.001238    4.058148   15.283890    ( 0.0000,  0.0000,  0.0000)
  62 N      5.261007    1.020133   15.287650    ( 0.0000,  0.0000,  0.0000)
  63 N      3.491079    4.022665   15.144588    ( 0.0000,  0.0000,  0.0000)
  64 Li     3.278653    3.568019   16.950968    ( 0.0000,  0.0000,  0.0000)

Unit cell:
           periodic     x           y           z      points  spacing
  1. axis:    yes    7.013420    0.000000    0.000000    40     0.1518
  2. axis:    yes   -3.506760    6.073886    0.000000    40     0.1518
  3. axis:    yes    0.000000    0.000000   29.936001   160     0.1871

  Lengths:   7.013420   7.013520  29.936001
  Angles:   90.000000  90.000000 120.000000

Effective grid spacing dv^(1/3) = 0.1708

                     log10-error:    total        iterations:
           time      wfs    density  energy       fermi  poisson
iter:   1  10:37:51  -2.22         -234.951353    4             
iter:   2  10:38:30  -3.10  -1.91  -235.164528    5             
iter:   3  10:39:11  -3.97  -1.81  -234.923379    4             
iter:   4  10:39:51  -3.84  -2.13  -234.891391    4             
iter:   5  10:40:31  -4.06  -2.08  -234.866338    3             
iter:   6  10:41:11  -4.07  -2.55  -234.859571    3             
iter:   7  10:41:51  -4.56  -2.42  -234.856388    3             
iter:   8  10:42:32  -5.64  -2.80  -234.855989    2             
iter:   9  10:43:12  -4.94  -2.77  -234.857386    2             
iter:  10  10:43:52  -5.48  -3.19  -234.856172    2             
iter:  11  10:44:32  -5.78  -3.24  -234.856982    2             
iter:  12  10:45:12  -5.87  -3.41  -234.856689    2             
iter:  13  10:45:53  -7.16  -3.60  -234.856580    2             
iter:  14  10:46:33  -6.16  -3.67  -234.856322    2             
iter:  15  10:47:12  -6.72  -3.61  -234.856450    2             
iter:  16  10:47:56  -6.96  -3.92  -234.856508    2             
iter:  17  10:48:36  -7.38  -4.13  -234.856635    2             

Converged after 17 iterations.

Dipole moment: (-1.972982, 1.133932, -11.345709) |e|*Ang

Energy contributions relative to reference atoms: (reference = -33644.147259)

Kinetic:       +256.978626
Potential:     -190.031018
External:        +0.000000
XC:            -300.477385
Entropy (-ST):   -0.075308
Local:           -1.289204
--------------------------
Free energy:   -234.894288
Extrapolated:  -234.856635

Fermi level: -0.23335

Showing only first 2 kpts
 Kpt  Band  Eigenvalues  Occupancy
  0    62     -0.53768    0.07982
  0    63     -0.03649    0.00153
  0    64      0.00999    0.00061
  0    65      0.20642    0.00001

  1    62     -0.63159    0.15994
  1    63     -0.28349    0.11706
  1    64     -0.13393    0.01927
  1    65      0.38579    0.00000



Forces in eV/Ang:
  0 Li   -0.00007    0.00005   -0.05043
  1 Li   -0.00007    0.00005   -0.05054
  2 Li   -0.00007    0.00005   -0.05055
  3 Li   -0.00007    0.00005   -0.05036
  4 Li   -0.06509   -0.10676   -0.04623
  5 Li   -0.06593    0.05035   -0.05951
  6 Li    0.07907   -0.03833   -0.05602
  7 Li    0.03480    0.06742   -0.24676
  8 Li    0.10355    0.01213    0.08838
  9 Li   -0.05831    0.00879   -0.06473
 10 Li   -0.03424    0.03064    0.02600
 11 Li    0.13459   -0.11483   -0.01625
 12 Li   -0.04479    0.09348    0.08736
 13 Li    0.04165   -0.01565    0.03181
 14 Li    0.03989   -0.04620   -0.05759
 15 Li   -0.16551    0.05710   -0.01675
 16 Li    0.00005   -0.00015   -0.04214
 17 Li   -0.00010   -0.00011   -0.04244
 18 Li   -0.00004   -0.00003   -0.04240
 19 Li    0.00011   -0.00017   -0.04232
 20 Li   -0.00012    0.00010   -0.04214
 21 Li    0.00002    0.00008   -0.04239
 22 Li   -0.00003   -0.00002   -0.04244
 23 Li   -0.00017    0.00013   -0.04232
 24 Li   -0.00006   -0.00008   -0.05025
 25 Li   -0.00003    0.00004   -0.04845
 26 Li    0.00005   -0.00005   -0.04847
 27 Li    0.00002    0.00010   -0.05635
 28 Li    0.00145   -0.00093    0.01026
 29 Li   -0.00667   -0.00172    0.00044
 30 Li   -0.00180    0.00653   -0.00048
 31 Li    0.00619   -0.00353    0.00278
 32 Li   -0.00173    0.00122    0.01030
 33 Li    0.00606    0.00217   -0.00045
 34 Li    0.00118   -0.00615    0.00033
 35 Li   -0.00676    0.00391    0.00278
 36 Li    0.00218    0.00220    0.01014
 37 Li   -0.00121   -0.00167    0.01424
 38 Li   -0.00281    0.00353    0.01532
 39 Li    0.00141   -0.00391    0.07903
 40 Li    0.00359    0.00078    0.00977
 41 Li    0.01548    0.00932    0.01326
 42 Li   -0.00170   -0.01908    0.01534
 43 Li   -0.01623    0.00709    0.02463
 44 Li   -0.00167    0.00343    0.00850
 45 Li   -0.01589   -0.01108    0.01628
 46 Li    0.00058    0.01812    0.01391
 47 Li    0.01410   -0.01006    0.02194
 48 N    -0.00019    0.00020    0.07835
 49 N    -0.00018    0.00012    0.08834
 50 N    -0.00022    0.00014    0.08887
 51 N    -0.00031    0.00003    0.07515
 52 N    -0.00055   -0.00083    0.05493
 53 N    -0.00069    0.00043    0.08081
 54 N     0.00041   -0.00013    0.08153
 55 N     0.00039    0.00105   -0.05479
 56 N     0.00417    0.00783   -0.00775
 57 N     0.00400   -0.00129    0.00433
 58 N    -0.00365    0.00324    0.00652
 59 N    -0.00409   -0.00725    0.05480
 60 N    -0.02458   -0.03756    0.04747
 61 N    -0.00594   -0.01777    0.06356
 62 N    -0.01369   -0.01052    0.05794
 63 N     0.01092    0.01761    0.05086
 64 Li    0.03570    0.05233   -0.08578

System changes: positions 

Initializing position-dependent things.

Density initialized from wave functions
                                         
                                         
                                         
                                         
                                         
                      Li                 
           Li      Li                    
             Li        N  Li             
                 Li Lii                  
              LiN      LiN  Li           
                                         
           Li N Li Li    Li              
                  Li   N  Li             
             Li N    Li  N               
              Li    Li Li   Li           
                                         
           Li N Li Li  N Li              
                  Li      Li             
             Li N    Li  N               
              Li    Li Li   Li           
           Li      Li                    
              N Li     N Li              
             Li   Li Li   Li             
                N        N               
              Li    Li Li   Li           
                                         
                Li       Li              
                                         
                                         
                                         
                                         

Positions:
   0 Li     1.753189    1.012426    1.530029    ( 0.0000,  0.0000,  0.0000)
   1 Li    -0.000191    4.049369    1.530029    ( 0.0000,  0.0000,  0.0000)
   2 Li     5.259899    1.012426    1.530029    ( 0.0000,  0.0000,  0.0000)
   3 Li     3.506519    4.049369    1.530029    ( 0.0000,  0.0000,  0.0000)
   4 Li     1.742744    1.007991   13.274504    ( 0.0000,  0.0000,  0.0000)
   5 Li    -0.000395    4.058303   13.318389    ( 0.0000,  0.0000,  0.0000)
   6 Li     5.268680    1.003380   13.319617    ( 0.0000,  0.0000,  0.0000)
   7 Li     3.500661    4.054534   13.246195    ( 0.0000,  0.0000,  0.0000)
   8 Li     3.462966    0.027714   16.001924    ( 0.0000,  0.0000,  0.0000)
   9 Li     1.663994    2.988505   15.013858    ( 0.0000,  0.0000,  0.0000)
  10 Li     7.013000    0.048935   15.184586    ( 0.0000,  0.0000,  0.0000)
  11 Li     5.296373    3.015917   15.222110    ( 0.0000,  0.0000,  0.0000)
  12 Li     0.035854    2.007087   16.004548    ( 0.0000,  0.0000,  0.0000)
  13 Li    -1.712474    5.087375   15.172430    ( 0.0000,  0.0000,  0.0000)
  14 Li     3.505283    1.919689   14.992839    ( 0.0000,  0.0000,  0.0000)
  15 Li     1.718417    5.080612   15.257007    ( 0.0000,  0.0000,  0.0000)
  16 Li     3.506465    0.000182    3.465092    ( 0.0000,  0.0000,  0.0000)
  17 Li     1.753085    3.037125    3.465092    ( 0.0000,  0.0000,  0.0000)
  18 Li     7.013175    0.000182    3.465092    ( 0.0000,  0.0000,  0.0000)
  19 Li     5.259795    3.037125    3.465092    ( 0.0000,  0.0000,  0.0000)
  20 Li    -0.000262    2.024791    3.465092    ( 0.0000,  0.0000,  0.0000)
  21 Li    -1.753642    5.061734    3.465092    ( 0.0000,  0.0000,  0.0000)
  22 Li     3.506448    2.024791    3.465092    ( 0.0000,  0.0000,  0.0000)
  23 Li     1.753068    5.061734    3.465092    ( 0.0000,  0.0000,  0.0000)
  24 Li     1.753084    1.012487    5.431887    ( 0.0000,  0.0000,  0.0000)
  25 Li    -0.000296    4.049430    5.431887    ( 0.0000,  0.0000,  0.0000)
  26 Li     5.259794    1.012487    5.431887    ( 0.0000,  0.0000,  0.0000)
  27 Li     3.506414    4.049430    5.431887    ( 0.0000,  0.0000,  0.0000)
  28 Li     3.506429    0.000182    7.378027    ( 0.0000,  0.0000,  0.0000)
  29 Li     1.753049    3.037125    7.378027    ( 0.0000,  0.0000,  0.0000)
  30 Li     7.013139    0.000182    7.378027    ( 0.0000,  0.0000,  0.0000)
  31 Li     5.259759    3.037125    7.378027    ( 0.0000,  0.0000,  0.0000)
  32 Li    -0.000297    2.024791    7.378027    ( 0.0000,  0.0000,  0.0000)
  33 Li    -1.753677    5.061734    7.378027    ( 0.0000,  0.0000,  0.0000)
  34 Li     3.506413    2.024791    7.378027    ( 0.0000,  0.0000,  0.0000)
  35 Li     1.753033    5.061734    7.378027    ( 0.0000,  0.0000,  0.0000)
  36 Li     1.752712    1.012579    9.345602    ( 0.0000,  0.0000,  0.0000)
  37 Li    -0.001269    4.049655    9.354199    ( 0.0000,  0.0000,  0.0000)
  38 Li     5.259198    1.013128    9.354306    ( 0.0000,  0.0000,  0.0000)
  39 Li     3.506253    4.049602    9.314219    ( 0.0000,  0.0000,  0.0000)
  40 Li     3.505724    0.000826   11.380740    ( 0.0000,  0.0000,  0.0000)
  41 Li     1.749063    3.036533   11.269400    ( 0.0000,  0.0000,  0.0000)
  42 Li     7.011228    0.003940   11.267233    ( 0.0000,  0.0000,  0.0000)
  43 Li     5.261244    3.035835   11.298304    ( 0.0000,  0.0000,  0.0000)
  44 Li    -0.002060    2.026201   11.380624    ( 0.0000,  0.0000,  0.0000)
  45 Li    -1.751408    5.062912   11.270227    ( 0.0000,  0.0000,  0.0000)
  46 Li     3.505996    2.022318   11.272134    ( 0.0000,  0.0000,  0.0000)
  47 Li     1.748916    5.063556   11.291841    ( 0.0000,  0.0000,  0.0000)
  48 N      1.753084    1.012487    3.439048    ( 0.0000,  0.0000,  0.0000)
  49 N     -0.000296    4.049430    3.439048    ( 0.0000,  0.0000,  0.0000)
  50 N      5.259794    1.012487    3.439048    ( 0.0000,  0.0000,  0.0000)
  51 N      3.506414    4.049430    3.439048    ( 0.0000,  0.0000,  0.0000)
  52 N      1.753031    1.012517    7.360963    ( 0.0000,  0.0000,  0.0000)
  53 N     -0.000349    4.049460    7.360963    ( 0.0000,  0.0000,  0.0000)
  54 N      5.259741    1.012517    7.360963    ( 0.0000,  0.0000,  0.0000)
  55 N      3.506361    4.049460    7.360963    ( 0.0000,  0.0000,  0.0000)
  56 N      1.751510    1.012793   11.293703    ( 0.0000,  0.0000,  0.0000)
  57 N     -0.001375    4.050028   11.311292    ( 0.0000,  0.0000,  0.0000)
  58 N      5.258745    1.012539   11.311972    ( 0.0000,  0.0000,  0.0000)
  59 N      3.505417    4.050597   11.245970    ( 0.0000,  0.0000,  0.0000)
  60 N      1.753975    1.019577   15.228046    ( 0.0000,  0.0000,  0.0000)
  61 N     -0.004648    4.059441   15.282004    ( 0.0000,  0.0000,  0.0000)
  62 N      5.264583    1.016805   15.285986    ( 0.0000,  0.0000,  0.0000)
  63 N      3.493999    4.028085   15.122533    ( 0.0000,  0.0000,  0.0000)
  64 Li     3.276661    3.564377   16.955235    ( 0.0000,  0.0000,  0.0000)

Unit cell:
           periodic     x           y           z      points  spacing
  1. axis:    yes    7.013420    0.000000    0.000000    40     0.1518
  2. axis:    yes   -3.506760    6.073886    0.000000    40     0.1518
  3. axis:    yes    0.000000    0.000000   29.936001   160     0.1871

  Lengths:   7.013420   7.013520  29.936001
  Angles:   90.000000  90.000000 120.000000

Effective grid spacing dv^(1/3) = 0.1708

                     log10-error:    total        iterations:
           time      wfs    density  energy       fermi  poisson
iter:   1  10:52:28  -3.18         -234.861337    3             
iter:   2  10:53:08  -4.05  -2.31  -234.924600    3             
iter:   3  10:53:48  -4.86  -2.19  -234.864758    3             
iter:   4  10:54:29  -4.21  -2.52  -234.896092    3             
iter:   5  10:55:09  -4.61  -2.06  -234.850287    3             
iter:   6  10:55:49  -5.05  -2.69  -234.852912    2             
iter:   7  10:56:29  -5.52  -3.09  -234.849693    2             
iter:   8  10:57:09  -5.82  -2.91  -234.851154    2             
iter:   9  10:57:49  -6.34  -3.52  -234.851053    2             
iter:  10  10:58:29  -6.78  -3.68  -234.850989    2             
iter:  11  10:59:10  -6.41  -3.74  -234.851033    2             
iter:  12  10:59:50  -6.86  -4.03  -234.851066    2             
iter:  13  11:00:30  -7.58  -4.14  -234.851090    2             

Converged after 13 iterations.

Dipole moment: (-1.896168, 1.057991, -11.342040) |e|*Ang

Energy contributions relative to reference atoms: (reference = -33644.147259)

Kinetic:       +256.790833
Potential:     -189.909642
External:        +0.000000
XC:            -300.404388
Entropy (-ST):   -0.075482
Local:           -1.290152
--------------------------
Free energy:   -234.888831
Extrapolated:  -234.851090

Fermi level: -0.22889

Showing only first 2 kpts
 Kpt  Band  Eigenvalues  Occupancy
  0    62     -0.52450    0.07978
  0    63     -0.03305    0.00156
  0    64      0.01464    0.00061
  0    65      0.21238    0.00001

  1    62     -0.63277    0.15995
  1    63     -0.27957    0.11739
  1    64     -0.12938    0.01924
  1    65      0.39048    0.00000



Forces in eV/Ang:
  0 Li   -0.00007    0.00005   -0.04917
  1 Li   -0.00007    0.00005   -0.04927
  2 Li   -0.00007    0.00005   -0.04928
  3 Li   -0.00007    0.00005   -0.04909
  4 Li   -0.07222   -0.11948   -0.04070
  5 Li   -0.07166    0.05446   -0.06236
  6 Li    0.08595   -0.04211   -0.06027
  7 Li    0.04168    0.08085   -0.43156
  8 Li    0.10797    0.00803    0.07471
  9 Li   -0.06232    0.02111   -0.05828
 10 Li   -0.01262    0.01018   -0.00943
 11 Li    0.11249   -0.12251   -0.03365
 12 Li   -0.04993    0.09473    0.07349
 13 Li    0.00904   -0.00636   -0.00426
 14 Li    0.05083   -0.03963   -0.04987
 15 Li   -0.16724    0.03811   -0.03419
 16 Li    0.00005   -0.00014   -0.04196
 17 Li   -0.00008   -0.00012   -0.04221
 18 Li   -0.00003   -0.00004   -0.04222
 19 Li    0.00009   -0.00016   -0.04210
 20 Li   -0.00011    0.00011   -0.04196
 21 Li    0.00002    0.00007   -0.04219
 22 Li   -0.00003   -0.00000   -0.04221
 23 Li   -0.00017    0.00011   -0.04213
 24 Li   -0.00002   -0.00003   -0.05003
 25 Li   -0.00002    0.00002   -0.04815
 26 Li    0.00002   -0.00001   -0.04815
 27 Li    0.00001    0.00004   -0.05593
 28 Li    0.00147   -0.00098    0.01029
 29 Li   -0.00669   -0.00166    0.00054
 30 Li   -0.00184    0.00651    0.00007
 31 Li    0.00623   -0.00353    0.00249
 32 Li   -0.00168    0.00116    0.01034
 33 Li    0.00603    0.00226   -0.00032
 34 Li    0.00110   -0.00616    0.00001
 35 Li   -0.00671    0.00390    0.00332
 36 Li    0.00180    0.00186    0.01553
 37 Li   -0.00088   -0.00151    0.02043
 38 Li   -0.00239    0.00286    0.02159
 39 Li    0.00112   -0.00309    0.09769
 40 Li    0.00241    0.00187    0.00982
 41 Li    0.02055    0.01166    0.02071
 42 Li   -0.00008   -0.02568    0.01922
 43 Li   -0.02337    0.01158    0.03077
 44 Li    0.00041    0.00253    0.00841
 45 Li   -0.02276   -0.01354    0.01978
 46 Li    0.00040    0.02421    0.02119
 47 Li    0.02061   -0.01340    0.02867
 48 N    -0.00024    0.00014    0.07834
 49 N    -0.00018    0.00015    0.08837
 50 N    -0.00019    0.00012    0.08895
 51 N    -0.00027    0.00013    0.07602
 52 N    -0.00004   -0.00015    0.05259
 53 N    -0.00060    0.00012    0.08051
 54 N    -0.00015    0.00043    0.08140
 55 N     0.00027    0.00009   -0.05723
 56 N    -0.00000    0.00269   -0.01752
 57 N     0.00348    0.00167   -0.00192
 58 N     0.00031   -0.00035    0.00042
 59 N    -0.00357   -0.00237    0.02981
 60 N     0.02100    0.04315    0.07814
 61 N     0.07853   -0.04128    0.09663
 62 N    -0.06926    0.03517    0.09067
 63 N    -0.04565   -0.08590    0.43458
 64 Li    0.04547    0.07299   -0.23610

System changes: positions 

Initializing position-dependent things.

Density initialized from wave functions
                                         
                                         
                                         
                                         
                                         
                      Li                 
           Li      Li                    
             Li        N  Li             
                 Li Lii                  
              LiN      LiN  Li           
                                         
           Li N Li Li    Li              
                  Li   N  Li             
             Li N    Li  N               
              Li    Li Li   Li           
                                         
           Li N Li Li  N Li              
                  Li      Li             
             Li N    Li  N               
              Li    Li Li   Li           
           Li      Li                    
              N Li     N Li              
             Li   Li Li   Li             
                N        N               
              Li    Li Li   Li           
                                         
                Li       Li              
                                         
                                         
                                         
                                         

Positions:
   0 Li     1.753189    1.012426    1.530029    ( 0.0000,  0.0000,  0.0000)
   1 Li    -0.000191    4.049369    1.530029    ( 0.0000,  0.0000,  0.0000)
   2 Li     5.259899    1.012426    1.530029    ( 0.0000,  0.0000,  0.0000)
   3 Li     3.506519    4.049369    1.530029    ( 0.0000,  0.0000,  0.0000)
   4 Li     1.739046    1.002071   13.271106    ( 0.0000,  0.0000,  0.0000)
   5 Li    -0.004539    4.061538   13.316759    ( 0.0000,  0.0000,  0.0000)
   6 Li     5.273524    1.001365   13.318335    ( 0.0000,  0.0000,  0.0000)
   7 Li     3.502468    4.057575   13.247000    ( 0.0000,  0.0000,  0.0000)
   8 Li     3.464683    0.032418   16.011745    ( 0.0000,  0.0000,  0.0000)
   9 Li     1.660294    2.986122   15.001238    ( 0.0000,  0.0000,  0.0000)
  10 Li     7.010352    0.050299   15.193593    ( 0.0000,  0.0000,  0.0000)
  11 Li     5.301550    3.011109   15.221160    ( 0.0000,  0.0000,  0.0000)
  12 Li     0.038756    2.010893   16.014535    ( 0.0000,  0.0000,  0.0000)
  13 Li    -1.709948    5.085561   15.182117    ( 0.0000,  0.0000,  0.0000)
  14 Li     3.505317    1.914847   14.980197    ( 0.0000,  0.0000,  0.0000)
  15 Li     1.712115    5.082314   15.256270    ( 0.0000,  0.0000,  0.0000)
  16 Li     3.506465    0.000182    3.465092    ( 0.0000,  0.0000,  0.0000)
  17 Li     1.753085    3.037125    3.465092    ( 0.0000,  0.0000,  0.0000)
  18 Li     7.013175    0.000182    3.465092    ( 0.0000,  0.0000,  0.0000)
  19 Li     5.259795    3.037125    3.465092    ( 0.0000,  0.0000,  0.0000)
  20 Li    -0.000262    2.024791    3.465092    ( 0.0000,  0.0000,  0.0000)
  21 Li    -1.753642    5.061734    3.465092    ( 0.0000,  0.0000,  0.0000)
  22 Li     3.506448    2.024791    3.465092    ( 0.0000,  0.0000,  0.0000)
  23 Li     1.753068    5.061734    3.465092    ( 0.0000,  0.0000,  0.0000)
  24 Li     1.753084    1.012487    5.431887    ( 0.0000,  0.0000,  0.0000)
  25 Li    -0.000296    4.049430    5.431887    ( 0.0000,  0.0000,  0.0000)
  26 Li     5.259794    1.012487    5.431887    ( 0.0000,  0.0000,  0.0000)
  27 Li     3.506414    4.049430    5.431887    ( 0.0000,  0.0000,  0.0000)
  28 Li     3.506429    0.000182    7.378027    ( 0.0000,  0.0000,  0.0000)
  29 Li     1.753049    3.037125    7.378027    ( 0.0000,  0.0000,  0.0000)
  30 Li     7.013139    0.000182    7.378027    ( 0.0000,  0.0000,  0.0000)
  31 Li     5.259759    3.037125    7.378027    ( 0.0000,  0.0000,  0.0000)
  32 Li    -0.000297    2.024791    7.378027    ( 0.0000,  0.0000,  0.0000)
  33 Li    -1.753677    5.061734    7.378027    ( 0.0000,  0.0000,  0.0000)
  34 Li     3.506413    2.024791    7.378027    ( 0.0000,  0.0000,  0.0000)
  35 Li     1.753033    5.061734    7.378027    ( 0.0000,  0.0000,  0.0000)
  36 Li     1.752853    1.012607    9.345547    ( 0.0000,  0.0000,  0.0000)
  37 Li    -0.001599    4.049552    9.354565    ( 0.0000,  0.0000,  0.0000)
  38 Li     5.258984    1.013520    9.354739    ( 0.0000,  0.0000,  0.0000)
  39 Li     3.506601    4.049307    9.316411    ( 0.0000,  0.0000,  0.0000)
  40 Li     3.506023    0.000831   11.381157    ( 0.0000,  0.0000,  0.0000)
  41 Li     1.749307    3.036768   11.270181    ( 0.0000,  0.0000,  0.0000)
  42 Li     7.010976    0.003613   11.267689    ( 0.0000,  0.0000,  0.0000)
  43 Li     5.261034    3.035778   11.300352    ( 0.0000,  0.0000,  0.0000)
  44 Li    -0.002204    2.026459   11.380958    ( 0.0000,  0.0000,  0.0000)
  45 Li    -1.751575    5.062628   11.270935    ( 0.0000,  0.0000,  0.0000)
[...]

Unit cell:
           periodic     x           y           z      points  spacing
  1. axis:    yes    7.013420    0.000000    0.000000    40     0.1518
  2. axis:    yes   -3.506760    6.073886    0.000000    40     0.1518
  3. axis:    yes    0.000000    0.000000   29.936001   160     0.1871

  Lengths:   7.013420   7.013520  29.936001
  Angles:   90.000000  90.000000 120.000000

Effective grid spacing dv^(1/3) = 0.1708

                     log10-error:    total        iterations:
           time      wfs    density  energy       fermi  poisson
iter:   1  16:54:44  -4.87         -234.940561    2             
iter:   2  16:55:25  -5.76  -3.17  -234.937625    3             
iter:   3  16:56:05  -6.45  -2.86  -234.938980    2             
iter:   4  16:56:45  -6.12  -3.47  -234.938639    3             
iter:   5  16:57:26  -6.73  -3.61  -234.939055    2             
iter:   6  16:58:06  -7.10  -4.01  -234.939086    2             

Converged after 6 iterations.

Dipole moment: (-1.538325, 0.294788, -11.355742) |e|*Ang

Energy contributions relative to reference atoms: (reference = -33644.147259)

Kinetic:       +254.240049
Potential:     -188.193249
External:        +0.000000
XC:            -299.665775
Entropy (-ST):   -0.075757
Local:           -1.282233
--------------------------
Free energy:   -234.976964
Extrapolated:  -234.939086

Fermi level: -0.21735

Showing only first 2 kpts
 Kpt  Band  Eigenvalues  Occupancy
  0    62     -0.59011    0.07995
  0    63     -0.00464    0.00112
  0    64      0.00961    0.00085
  0    65      0.19793    0.00002

  1    62     -0.67050    0.15998
  1    63     -0.27570    0.12201
  1    64     -0.10880    0.01638
  1    65      0.38961    0.00000



Forces in eV/Ang:
  0 Li   -0.00006    0.00007   -0.05495
  1 Li   -0.00007    0.00004   -0.05488
  2 Li   -0.00009    0.00006   -0.05489
  3 Li   -0.00008    0.00003   -0.05466
  4 Li   -0.01300   -0.01672    0.00079
  5 Li   -0.00743    0.01370    0.00743
  6 Li    0.01629   -0.00353    0.00651
  7 Li    0.00588    0.01468   -0.00787
  8 Li    0.00058    0.01208    0.00178
  9 Li   -0.00888    0.02233   -0.02075
 10 Li    0.01458    0.00709   -0.00085
 11 Li   -0.00587   -0.01189   -0.00667
 12 Li    0.00845    0.01013    0.00353
 13 Li   -0.00372    0.01548    0.00090
 14 Li    0.02147    0.00309   -0.02489
 15 Li   -0.00790   -0.01270    0.00082
 16 Li    0.00007   -0.00013   -0.04497
 17 Li   -0.00002   -0.00007   -0.04474
 18 Li   -0.00005   -0.00012   -0.04555
 19 Li    0.00003   -0.00014   -0.04499
 20 Li   -0.00011    0.00016   -0.04490
 21 Li   -0.00003    0.00000   -0.04547
 22 Li   -0.00004    0.00009   -0.04471
 23 Li   -0.00012    0.00005   -0.04517
 24 Li    0.00052    0.00092   -0.05544
 25 Li    0.00035   -0.00046   -0.05608
 26 Li   -0.00053    0.00051   -0.05607
 27 Li   -0.00036   -0.00108   -0.06383
 28 Li   -0.00264   -0.00509    0.01408
 29 Li   -0.00851   -0.00045   -0.01876
 30 Li    0.00209    0.00559    0.02500
 31 Li    0.00820    0.00174   -0.00386
 32 Li   -0.00213   -0.00498    0.00996
 33 Li    0.00322    0.00674    0.02164
 34 Li    0.00151   -0.00785   -0.02248
 35 Li   -0.00360    0.00834    0.00535
 36 Li    0.00653    0.01113    0.01416
 37 Li    0.00661   -0.00166    0.00902
 38 Li   -0.00518    0.00526    0.00867
 39 Li   -0.00550   -0.00951    0.02069
 40 Li    0.00092    0.00499   -0.00157
 41 Li   -0.00145   -0.00137    0.00710
 42 Li    0.00046    0.00443   -0.00061
 43 Li    0.00129   -0.00128    0.00734
 44 Li    0.00335    0.00346   -0.00520
 45 Li    0.00346    0.00240   -0.00146
 46 Li   -0.00023   -0.00169    0.00381
 47 Li   -0.00279    0.00105    0.00293
 48 N    -0.00054   -0.00045    0.10949
 49 N    -0.00044    0.00044    0.10605
 50 N     0.00012   -0.00012    0.10670
 51 N     0.00002    0.00080    0.09337
 52 N     0.00967    0.01749    0.14417
 53 N     0.00663   -0.00755    0.11469
 54 N    -0.01014    0.00877    0.11862
 55 N    -0.00590   -0.01532   -0.03227
 56 N     0.00037    0.00241   -0.01916
 57 N     0.00142    0.00196   -0.01536
 58 N     0.00085    0.00167   -0.01556
 59 N    -0.00176   -0.00355   -0.05812
 60 N    -0.01708   -0.02882    0.00780
 61 N     0.03249    0.00095    0.01449
 62 N    -0.01170    0.02030    0.00970
 63 N    -0.00118   -0.01334    0.06369
 64 Li   -0.03242   -0.06883   -0.05241

System changes: positions 

Initializing position-dependent things.

Density initialized from wave functions
                                         
                                         
                                         
                                         
                                         
                      Li                 
           Li N    Li                    
             Li        N  Li             
                NLi Lii  N               
              Li       Li   Li           
                                         
           Li N Li Li  N Li              
                  Li      Li             
             Li N    Li  N               
              Li    Li Li   Li           
                                         
           Li N Li Li  N Li              
                  Li      Li             
             Li N    Li  N               
              Li    Li Li   Li           
           Li      Li                    
              N Li     N Li              
             Li   Li Li   Li             
                N        N               
              Li    Li Li   Li           
                                         
                Li       Li              
                                         
                                         
                                         
                                         

Positions:
   0 Li     1.753189    1.012426    1.530029    ( 0.0000,  0.0000,  0.0000)
   1 Li    -0.000191    4.049369    1.530029    ( 0.0000,  0.0000,  0.0000)
   2 Li     5.259899    1.012426    1.530029    ( 0.0000,  0.0000,  0.0000)
   3 Li     3.506519    4.049369    1.530029    ( 0.0000,  0.0000,  0.0000)
   4 Li     1.673507    0.895194   13.338552    ( 0.0000,  0.0000,  0.0000)
   5 Li    -0.058910    4.133501   13.316719    ( 0.0000,  0.0000,  0.0000)
   6 Li     5.358676    0.969206   13.318831    ( 0.0000,  0.0000,  0.0000)
   7 Li     3.542595    4.144420   13.192421    ( 0.0000,  0.0000,  0.0000)
   8 Li     3.534121    0.074943   16.092503    ( 0.0000,  0.0000,  0.0000)
   9 Li     1.638599    2.983583   14.940723    ( 0.0000,  0.0000,  0.0000)
  10 Li     7.007396    0.066687   15.324325    ( 0.0000,  0.0000,  0.0000)
  11 Li     5.325895    2.997679   15.110895    ( 0.0000,  0.0000,  0.0000)
  12 Li     0.025420    2.098318   16.102596    ( 0.0000,  0.0000,  0.0000)
  13 Li    -1.703119    5.088507   15.318092    ( 0.0000,  0.0000,  0.0000)
  14 Li     3.509554    1.893960   14.900626    ( 0.0000,  0.0000,  0.0000)
  15 Li     1.689024    5.092946   15.179868    ( 0.0000,  0.0000,  0.0000)
  16 Li     3.506465    0.000182    3.465092    ( 0.0000,  0.0000,  0.0000)
  17 Li     1.753085    3.037125    3.465092    ( 0.0000,  0.0000,  0.0000)
  18 Li     7.013175    0.000182    3.465092    ( 0.0000,  0.0000,  0.0000)
  19 Li     5.259795    3.037125    3.465092    ( 0.0000,  0.0000,  0.0000)
  20 Li    -0.000262    2.024791    3.465092    ( 0.0000,  0.0000,  0.0000)
  21 Li    -1.753642    5.061734    3.465092    ( 0.0000,  0.0000,  0.0000)
  22 Li     3.506448    2.024791    3.465092    ( 0.0000,  0.0000,  0.0000)
  23 Li     1.753068    5.061734    3.465092    ( 0.0000,  0.0000,  0.0000)
  24 Li     1.753084    1.012487    5.431887    ( 0.0000,  0.0000,  0.0000)
  25 Li    -0.000296    4.049430    5.431887    ( 0.0000,  0.0000,  0.0000)
  26 Li     5.259794    1.012487    5.431887    ( 0.0000,  0.0000,  0.0000)
  27 Li     3.506414    4.049430    5.431887    ( 0.0000,  0.0000,  0.0000)
  28 Li     3.506429    0.000182    7.378027    ( 0.0000,  0.0000,  0.0000)
  29 Li     1.753049    3.037125    7.378027    ( 0.0000,  0.0000,  0.0000)
  30 Li     7.013139    0.000182    7.378027    ( 0.0000,  0.0000,  0.0000)
  31 Li     5.259759    3.037125    7.378027    ( 0.0000,  0.0000,  0.0000)
  32 Li    -0.000297    2.024791    7.378027    ( 0.0000,  0.0000,  0.0000)
  33 Li    -1.753677    5.061734    7.378027    ( 0.0000,  0.0000,  0.0000)
  34 Li     3.506413    2.024791    7.378027    ( 0.0000,  0.0000,  0.0000)
  35 Li     1.753033    5.061734    7.378027    ( 0.0000,  0.0000,  0.0000)
  36 Li     1.764467    1.034456    9.367090    ( 0.0000,  0.0000,  0.0000)
  37 Li     0.007452    4.041818    9.359934    ( 0.0000,  0.0000,  0.0000)
  38 Li     5.247660    1.023866    9.360675    ( 0.0000,  0.0000,  0.0000)
  39 Li     3.498715    4.031747    9.318752    ( 0.0000,  0.0000,  0.0000)
  40 Li     3.508387    0.008396   11.420603    ( 0.0000,  0.0000,  0.0000)
  41 Li     1.752111    3.040518   11.344055    ( 0.0000,  0.0000,  0.0000)
  42 Li     7.011739    0.008345   11.235087    ( 0.0000,  0.0000,  0.0000)
  43 Li     5.260374    3.038357   11.292123    ( 0.0000,  0.0000,  0.0000)
  44 Li     0.000890    2.033637   11.418897    ( 0.0000,  0.0000,  0.0000)
  45 Li    -1.749490    5.066306   11.235826    ( 0.0000,  0.0000,  0.0000)
  46 Li     3.505840    2.028001   11.341317    ( 0.0000,  0.0000,  0.0000)
  47 Li     1.748773    5.065030   11.266135    ( 0.0000,  0.0000,  0.0000)
  48 N      1.753084    1.012487    3.439048    ( 0.0000,  0.0000,  0.0000)
  49 N     -0.000296    4.049430    3.439048    ( 0.0000,  0.0000,  0.0000)
  50 N      5.259794    1.012487    3.439048    ( 0.0000,  0.0000,  0.0000)
  51 N      3.506414    4.049430    3.439048    ( 0.0000,  0.0000,  0.0000)
  52 N      1.753031    1.012517    7.360963    ( 0.0000,  0.0000,  0.0000)
  53 N     -0.000349    4.049460    7.360963    ( 0.0000,  0.0000,  0.0000)
  54 N      5.259741    1.012517    7.360963    ( 0.0000,  0.0000,  0.0000)
  55 N      3.506361    4.049460    7.360963    ( 0.0000,  0.0000,  0.0000)
  56 N      1.748693    1.010636   11.336540    ( 0.0000,  0.0000,  0.0000)
  57 N     -0.003548    4.058407   11.318911    ( 0.0000,  0.0000,  0.0000)
  58 N      5.264997    1.014577   11.321056    ( 0.0000,  0.0000,  0.0000)
  59 N      3.507440    4.057007   11.234740    ( 0.0000,  0.0000,  0.0000)
  60 N      1.765396    1.043003   15.330860    ( 0.0000,  0.0000,  0.0000)
  61 N      0.002527    4.066553   15.292214    ( 0.0000,  0.0000,  0.0000)
  62 N      5.260643    1.030321   15.297628    ( 0.0000,  0.0000,  0.0000)
  63 N      3.497601    4.037616   15.097832    ( 0.0000,  0.0000,  0.0000)
  64 Li     3.247241    3.426107   16.844757    ( 0.0000,  0.0000,  0.0000)

Unit cell:
           periodic     x           y           z      points  spacing
  1. axis:    yes    7.013420    0.000000    0.000000    40     0.1518
  2. axis:    yes   -3.506760    6.073886    0.000000    40     0.1518
  3. axis:    yes    0.000000    0.000000   29.936001   160     0.1871

  Lengths:   7.013420   7.013520  29.936001
  Angles:   90.000000  90.000000 120.000000

Effective grid spacing dv^(1/3) = 0.1708

                     log10-error:    total        iterations:
           time      wfs    density  energy       fermi  poisson
iter:   1  17:01:31  -4.44         -234.942003    3             
iter:   2  17:02:11  -5.47  -2.96  -234.938413    3             
iter:   3  17:02:51  -6.24  -2.68  -234.939240    3             
iter:   4  17:03:30  -5.33  -3.12  -234.938683    3             
iter:   5  17:04:10  -6.16  -3.38  -234.939521    2             
iter:   6  17:04:51  -6.69  -3.74  -234.939411    2             
iter:   7  17:05:31  -6.86  -4.07  -234.939226    2             
iter:   8  17:06:12  -6.93  -3.80  -234.939357    2             
iter:   9  17:06:53  -7.68  -4.40  -234.939388    2             

Converged after 9 iterations.

Dipole moment: (-1.537588, 0.291861, -11.357724) |e|*Ang

Energy contributions relative to reference atoms: (reference = -33644.147259)

Kinetic:       +254.290329
Potential:     -188.231614
External:        +0.000000
XC:            -299.677424
Entropy (-ST):   -0.075748
Local:           -1.282805
--------------------------
Free energy:   -234.977262
Extrapolated:  -234.939388

Fermi level: -0.21844

Showing only first 2 kpts
 Kpt  Band  Eigenvalues  Occupancy
  0    62     -0.59347    0.07996
  0    63     -0.00564    0.00112
  0    64      0.00893    0.00084
  0    65      0.19786    0.00002

  1    62     -0.67170    0.15998
  1    63     -0.27673    0.12198
  1    64     -0.10984    0.01637
  1    65      0.38895    0.00000



Forces in eV/Ang:
  0 Li   -0.00006    0.00007   -0.05448
  1 Li   -0.00007    0.00004   -0.05442
  2 Li   -0.00009    0.00006   -0.05443
  3 Li   -0.00008    0.00003   -0.05418
  4 Li   -0.01016   -0.01225   -0.00221
  5 Li   -0.00636    0.01215    0.00426
  6 Li    0.01425   -0.00329    0.00303
  7 Li    0.00431    0.01157    0.00852
  8 Li    0.00234    0.00979    0.00318
  9 Li   -0.00109    0.00662   -0.01971
 10 Li   -0.00128    0.00771    0.00738
 11 Li    0.00496    0.00039    0.00132
 12 Li    0.00561    0.00999    0.00500
 13 Li    0.00655    0.00208    0.00912
 14 Li    0.00547    0.00072   -0.02390
 15 Li    0.00037    0.00229    0.00830
 16 Li    0.00008   -0.00013   -0.04477
 17 Li    0.00000   -0.00006   -0.04450
 18 Li   -0.00006   -0.00014   -0.04536
 19 Li    0.00001   -0.00014   -0.04477
 20 Li   -0.00011    0.00017   -0.04470
 21 Li   -0.00004   -0.00001   -0.04529
 22 Li   -0.00004    0.00011   -0.04447
 23 Li   -0.00011    0.00003   -0.04494
 24 Li    0.00055    0.00096   -0.05491
 25 Li    0.00039   -0.00048   -0.05576
 26 Li   -0.00057    0.00051   -0.05575
 27 Li   -0.00040   -0.00113   -0.06329
 28 Li   -0.00258   -0.00525    0.01482
 29 Li   -0.00834   -0.00013   -0.01848
 30 Li    0.00205    0.00511    0.02662
 31 Li    0.00801    0.00208   -0.00255
 32 Li   -0.00231   -0.00499    0.01085
 33 Li    0.00282    0.00644    0.02329
 34 Li    0.00172   -0.00751   -0.02218
 35 Li   -0.00321    0.00832    0.00647
 36 Li    0.00613    0.01045    0.00351
 37 Li    0.00607   -0.00179    0.00108
 38 Li   -0.00497    0.00494    0.00095
 39 Li   -0.00508   -0.00907   -0.00367
 40 Li    0.00076    0.00405   -0.00247
 41 Li   -0.00150   -0.00072    0.00304
 42 Li    0.00023    0.00430   -0.00420
 43 Li    0.00201   -0.00105    0.00232
 44 Li    0.00228    0.00315   -0.00600
 45 Li    0.00362    0.00243   -0.00511
 46 Li    0.00007   -0.00168   -0.00043
 47 Li   -0.00249    0.00144   -0.00220
 48 N    -0.00057   -0.00051    0.10901
 49 N    -0.00049    0.00045    0.10585
 50 N     0.00018   -0.00015    0.10646
 51 N     0.00005    0.00085    0.09278
 52 N     0.00999    0.01793    0.14561
 53 N     0.00701   -0.00770    0.11821
 54 N    -0.01049    0.00892    0.12196
 55 N    -0.00630   -0.01598   -0.02836
 56 N    -0.00088   -0.00133    0.00621
 57 N    -0.00097    0.00175    0.00017
 58 N     0.00185    0.00088    0.00005
 59 N     0.00046    0.00048    0.00360
 60 N    -0.00086   -0.00398    0.00225
 61 N    -0.01417    0.00521    0.00323
 62 N     0.00936   -0.00606    0.00377
 63 N     0.00647    0.01028   -0.02134
 64 Li   -0.03566   -0.07711   -0.01757

Timing:                                      incl.     excl.
-------------------------------------------------------------------
Density initialized from wave functions:   248.897   248.895   0.9% |
 Symmetrize density:                         0.001     0.001   0.0% |
Forces:                                    728.185   728.185   2.6% ||
Hamiltonian:                               154.654     0.514   0.0% |
 Atomic:                                    22.770    11.784   0.0% |
  XC Correction:                            10.986    10.986   0.0% |
 Calculate atomic Hamiltonians:             66.872    66.872   0.2% |
 Communicate:                                1.673     1.673   0.0% |
 Initialize Hamiltonian:                     0.001     0.001   0.0% |
 Poisson:                                    0.126     0.126   0.0% |
 XC 3D grid:                                62.698    62.698   0.2% |
LCAO initialization:                        16.465     0.050   0.0% |
 LCAO eigensolver:                           3.664     0.000   0.0% |
  Calculate projections:                     0.066     0.066   0.0% |
  DenseAtomicCorrection:                     0.019     0.019   0.0% |
  Distribute overlap matrix:                 0.001     0.001   0.0% |
  Orbital Layouts:                           0.195     0.195   0.0% |
  Potential matrix:                          3.380     3.380   0.0% |
  Sum over cells:                            0.004     0.004   0.0% |
 LCAO to grid:                              11.181    11.181   0.0% |
 Set positions (LCAO WFS):                   1.570     0.350   0.0% |
  Basic WFS set positions:                   0.002     0.002   0.0% |
  Basis functions set positions:             0.000     0.000   0.0% |
  P tci:                                     0.599     0.599   0.0% |
  ST tci:                                    0.275     0.275   0.0% |
  mktci:                                     0.344     0.344   0.0% |
PWDescriptor:                                1.138     1.138   0.0% |
Redistribute:                                0.286     0.286   0.0% |
SCF-cycle:                               20574.171  8313.172  29.8% |-----------|
 Davidson:                                8799.914  3342.575  12.0% |----|
  Apply H:                                 814.777   811.043   2.9% ||
   HMM T:                                    3.734     3.734   0.0% |
  Subspace diag:                          1302.912     0.117   0.0% |
   calc_h_matrix:                          908.105   144.442   0.5% |
    Apply H:                               763.663   759.968   2.7% ||
     HMM T:                                  3.695     3.695   0.0% |
   diagonalize:                             47.896    47.896   0.2% |
   rotate_psi:                             346.794   346.794   1.2% |
  calc. matrices:                         2521.922   994.961   3.6% ||
   Apply H:                               1526.962  1519.901   5.5% |-|
    HMM T:                                   7.060     7.060   0.0% |
  diagonalize:                             135.147   135.147   0.5% |
  rotate_psi:                              682.581   682.581   2.5% ||
 Density:                                 1647.681     0.012   0.0% |
  Atomic density matrices:                   2.785     2.785   0.0% |
  Mix:                                     946.358   946.358   3.4% ||
  Multipole moments:                         0.408     0.408   0.0% |
  Pseudo density:                          698.117   698.106   2.5% ||
   Symmetrize density:                       0.011     0.011   0.0% |
 Hamiltonian:                             1577.167     5.432   0.0% |
  Atomic:                                  240.179   146.314   0.5% |
   XC Correction:                           93.866    93.866   0.3% |
  Calculate atomic Hamiltonians:           672.353   672.353   2.4% ||
  Communicate:                              16.490    16.490   0.1% |
  Poisson:                                   1.278     1.278   0.0% |
  XC 3D grid:                              641.435   641.435   2.3% ||
 Orthonormalize:                           236.238     0.011   0.0% |
  calc_s_matrix:                             7.225     7.225   0.0% |
  inverse-cholesky:                        142.107   142.107   0.5% |
  projections:                              74.840    74.840   0.3% |
  rotate_psi_s:                             12.056    12.056   0.0% |
Set symmetry:                                0.001     0.001   0.0% |
Other:                                    6131.787  6131.787  22.0% |--------|
-------------------------------------------------------------------
Total:                                             27855.584 100.0%

Date: Tue Sep  7 17:07:25 2021
