
  ___ ___ ___ _ _ _  
 |   |   |_  | | | | 
 | | | | | . | | | | 
 |__ |  _|___|_____|  20.1.0
 |___|_|             

User:   jngwng01@n944031
Date:   Tue Sep  7 09:23:09 2021
Arch:   x86_64
Pid:    25070
Python: 3.8.5
gpaw:   /uls/7/gpaw-20.1.0/lib/python3.8/site-packages/gpaw-20.1.0-py3.8-linux-x86_64.egg/gpaw
_gpaw:  /uls/7/gpaw-20.1.0/lib/python3.8/site-packages/gpaw-20.1.0-py3.8-linux-x86_64.egg/
        _gpaw.cpython-38-x86_64-linux-gnu.so
ase:    /uls/7/gpaw-20.1.0/lib/python3.8/site-packages/ase-3.20.1-py3.8.egg/ase (version 3.20.1)
numpy:  /uls/7/gpaw-20.1.0/lib/python3.8/site-packages/numpy (version 1.19.2)
scipy:  /uls/7/gpaw-20.1.0/lib/python3.8/site-packages/scipy-1.5.2-py3.8-linux-x86_64.egg/scipy (version 1.5.2)
libxc:  4.3.4
units:  Angstrom and eV
cores: 16
OMP_NUM_THREADS: 1

Input parameters:
  convergence: {density: 0.0001,
                eigenstates: 1e-07}
  kpts: [5 5 1]
  mode: {ecut: 500.0,
         gammacentered: False,
         name: pw}
  occupations: {name: fermi-dirac,
                width: 0.05}
  xc: PBE

System changes: positions, numbers, cell, pbc, initial_charges, initial_magmoms 

Initialize ...

Li-setup:
  name: Lithium
  id: 830b4218f175192f93f959cfc0aad614
  Z: 3
  valence: 1
  core: 2
  charge: 0.0
  file: /uls/7/gpaw-20.1.0/setups/gpaw-setups-0.9.20000/Li.PBE.gz
  compensation charges: gauss, rc=0.33, lmax=2
  cutoffs: 1.91(filt), 2.55(core),
  valence states:
                energy  radius
    2s(1.00)    -2.874   1.058
    2p(0.00)    -1.090   1.058
    *s          24.337   1.058

  Using partial waves for Li as LCAO basis

N-setup:
  name: Nitrogen
  id: f7500608b86eaa90eef8b1d9a670dc53
  Z: 7
  valence: 5
  core: 2
  charge: 0.0
  file: /uls/7/gpaw-20.1.0/setups/gpaw-setups-0.9.20000/N.PBE.gz
  compensation charges: gauss, rc=0.18, lmax=2
  cutoffs: 1.11(filt), 0.96(core),
  valence states:
                energy  radius
    2s(2.00)   -18.583   0.603
    2p(3.00)    -7.089   0.529
    *s           8.629   0.603
    *p          20.123   0.529
    *d           0.000   0.577

  Using partial waves for N as LCAO basis

Reference energy: -33644.147259

Spin-paired calculation

Occupation numbers:
  Fermi-Dirac: width=0.0500 eV

Convergence criteria:
  Maximum total energy change: 0.0005 eV / electron
  Maximum integral of absolute density change: 0.0001 electrons
  Maximum integral of absolute eigenstate change: 1e-07 eV^2
  Maximum number of iterations: 333

Symmetries present (total): 1

  ( 1  0  0)
  ( 0  1  0)
  ( 0  0  1)

25 k-points: 5 x 5 x 1 Monkhorst-Pack grid
13 k-points in the irreducible part of the Brillouin zone
       k-points in crystal coordinates                weights
   0:     0.00000000    0.00000000    0.00000000          1/25
   1:     0.00000000    0.20000000    0.00000000          2/25
   2:     0.00000000    0.40000000    0.00000000          2/25
   3:     0.20000000   -0.40000000    0.00000000          2/25
   4:     0.20000000   -0.20000000    0.00000000          2/25
   5:     0.20000000    0.00000000    0.00000000          2/25
   6:     0.20000000    0.20000000    0.00000000          2/25
   7:     0.20000000    0.40000000    0.00000000          2/25
   8:     0.40000000   -0.40000000    0.00000000          2/25
   9:     0.40000000   -0.20000000    0.00000000          2/25
          ...
  12:     0.40000000    0.40000000    0.00000000          2/25

Wave functions: Plane wave expansion
  Cutoff energy: 500.000 eV
  Number of coefficients (min, max): 32263, 32394
  Pulay-stress correction: 0.000000 eV/Ang^3 (de/decut=0.000000)
  Using FFTW library
  ScaLapack parameters: grid=1x1, blocksize=None
  Wavefunction extrapolation:
    Improved wavefunction reuse through dual PAW basis 

Eigensolver
   Davidson(niter=2, smin=None, normalize=True) 

Densities:
  Coarse grid: 40*40*160 grid
  Fine grid: 80*80*320 grid
  Total Charge: 0.000000 

Density mixing:
  Method: separate
  Backend: pulay
  Linear mixing parameter: 0.05
  Mixing with 5 old densities
  Damping of long wave oscillations: 50 

Hamiltonian:
  XC and Coulomb potentials evaluated on a 80*80*320 grid
  Using the PBE Exchange-Correlation functional
 

XC parameters: PBE with 2 nearest neighbor stencil

Memory estimate:
  Process memory now: 240.98 MiB
  Calculator: 170.79 MiB
    Density: 56.64 MiB
      Arrays: 25.39 MiB
      Localized functions: 21.49 MiB
      Mixer: 9.77 MiB
    Hamiltonian: 17.13 MiB
      Arrays: 16.60 MiB
      XC: 0.00 MiB
      Poisson: 0.00 MiB
      vbar: 0.52 MiB
    Wavefunctions: 97.02 MiB
      Arrays psit_nG: 40.53 MiB
      Eigensolver: 44.03 MiB
      Projections: 0.28 MiB
      Projectors: 2.10 MiB
      PW-descriptor: 10.07 MiB

Total number of cores used: 16
Parallelization over k-points: 8
Domain decomposition: 1 x 1 x 2
                      2 x 2 x 4 (xc only)

Number of atoms: 65
Number of atomic orbitals: 260
Number of bands in calculation: 82
Number of valence electrons: 129
Bands to converge: occupied

... initialized

Initializing position-dependent things.

Density initialized from atomic densities
Creating initial wave functions:
  82 bands from LCAO basis set

                                         
                                         
                                         
                                         
                                         
                   Li                    
           Li    Li       Li             
              N   Li   N                 
             Li       Li                 
              LiN   Li LiN  Li           
                                         
           Li N Li Li    Li              
                  Li   N  Li             
             Li      Li  N               
              LiN   Li Li   Li           
                                         
           Li N Li Li  N Li              
                  Li      Li             
             Li N    Li  N               
              Li    Li Li   Li           
           Li      Li                    
              N Li     N Li              
             Li   Li Li   Li             
                N        N               
              Li    Li Li   Li           
                                         
                Li       Li              
                                         
                                         
                                         
                                         

Positions:
   0 Li     1.753189    1.012426    1.530029    ( 0.0000,  0.0000,  0.0000)
   1 Li    -0.000191    4.049369    1.530029    ( 0.0000,  0.0000,  0.0000)
   2 Li     5.259899    1.012426    1.530029    ( 0.0000,  0.0000,  0.0000)
   3 Li     3.506519    4.049369    1.530029    ( 0.0000,  0.0000,  0.0000)
   4 Li     1.754028    1.017831   13.185567    ( 0.0000,  0.0000,  0.0000)
   5 Li     0.004008    4.049614   13.305259    ( 0.0000,  0.0000,  0.0000)
   6 Li     5.257448    1.014105   13.305209    ( 0.0000,  0.0000,  0.0000)
   7 Li     3.501640    4.046269   13.285953    ( 0.0000,  0.0000,  0.0000)
   8 Li     3.573046   -0.049214   15.256336    ( 0.0000,  0.0000,  0.0000)
   9 Li     1.741959    3.115655   15.113963    ( 0.0000,  0.0000,  0.0000)
  10 Li     6.948093   -0.024948   15.113051    ( 0.0000,  0.0000,  0.0000)
  11 Li     5.278662    3.039408   15.953860    ( 0.0000,  0.0000,  0.0000)
  12 Li    -0.078730    2.059434   15.257355    ( 0.0000,  0.0000,  0.0000)
  13 Li    -1.744290    4.994153   15.110104    ( 0.0000,  0.0000,  0.0000)
  14 Li     3.578167    2.055318   15.110678    ( 0.0000,  0.0000,  0.0000)
  15 Li     1.744415    5.079437   15.958926    ( 0.0000,  0.0000,  0.0000)
  16 Li     3.506465    0.000182    3.465092    ( 0.0000,  0.0000,  0.0000)
  17 Li     1.753085    3.037125    3.465092    ( 0.0000,  0.0000,  0.0000)
  18 Li     7.013175    0.000182    3.465092    ( 0.0000,  0.0000,  0.0000)
  19 Li     5.259795    3.037125    3.465092    ( 0.0000,  0.0000,  0.0000)
  20 Li    -0.000262    2.024791    3.465092    ( 0.0000,  0.0000,  0.0000)
  21 Li    -1.753642    5.061734    3.465092    ( 0.0000,  0.0000,  0.0000)
  22 Li     3.506448    2.024791    3.465092    ( 0.0000,  0.0000,  0.0000)
  23 Li     1.753068    5.061734    3.465092    ( 0.0000,  0.0000,  0.0000)
  24 Li     1.753084    1.012487    5.431887    ( 0.0000,  0.0000,  0.0000)
  25 Li    -0.000296    4.049430    5.431887    ( 0.0000,  0.0000,  0.0000)
  26 Li     5.259794    1.012487    5.431887    ( 0.0000,  0.0000,  0.0000)
  27 Li     3.506414    4.049430    5.431887    ( 0.0000,  0.0000,  0.0000)
  28 Li     3.506429    0.000182    7.378027    ( 0.0000,  0.0000,  0.0000)
  29 Li     1.753049    3.037125    7.378027    ( 0.0000,  0.0000,  0.0000)
  30 Li     7.013139    0.000182    7.378027    ( 0.0000,  0.0000,  0.0000)
  31 Li     5.259759    3.037125    7.378027    ( 0.0000,  0.0000,  0.0000)
  32 Li    -0.000297    2.024791    7.378027    ( 0.0000,  0.0000,  0.0000)
  33 Li    -1.753677    5.061734    7.378027    ( 0.0000,  0.0000,  0.0000)
  34 Li     3.506413    2.024791    7.378027    ( 0.0000,  0.0000,  0.0000)
  35 Li     1.753033    5.061734    7.378027    ( 0.0000,  0.0000,  0.0000)
  36 Li     1.753366    1.013932    9.319298    ( 0.0000,  0.0000,  0.0000)
  37 Li     0.000213    4.049424    9.353388    ( 0.0000,  0.0000,  0.0000)
  38 Li     5.259076    1.012626    9.353381    ( 0.0000,  0.0000,  0.0000)
  39 Li     3.505202    4.048954    9.348074    ( 0.0000,  0.0000,  0.0000)
  40 Li     3.508522   -0.001225   11.286884    ( 0.0000,  0.0000,  0.0000)
  41 Li     1.751866    3.040952   11.266196    ( 0.0000,  0.0000,  0.0000)
  42 Li     7.010102   -0.000274   11.267873    ( 0.0000,  0.0000,  0.0000)
  43 Li     5.260145    3.038052   11.380775    ( 0.0000,  0.0000,  0.0000)
  44 Li    -0.004194    2.026853   11.286774    ( 0.0000,  0.0000,  0.0000)
  45 Li    -1.753892    5.059565   11.268106    ( 0.0000,  0.0000,  0.0000)
  46 Li     3.509062    2.026514   11.266390    ( 0.0000,  0.0000,  0.0000)
  47 Li     1.752183    5.063393   11.380493    ( 0.0000,  0.0000,  0.0000)
  48 N      1.753084    1.012487    3.439048    ( 0.0000,  0.0000,  0.0000)
  49 N     -0.000296    4.049430    3.439048    ( 0.0000,  0.0000,  0.0000)
  50 N      5.259794    1.012487    3.439048    ( 0.0000,  0.0000,  0.0000)
  51 N      3.506414    4.049430    3.439048    ( 0.0000,  0.0000,  0.0000)
  52 N      1.753031    1.012517    7.360963    ( 0.0000,  0.0000,  0.0000)
  53 N     -0.000349    4.049460    7.360963    ( 0.0000,  0.0000,  0.0000)
  54 N      5.259741    1.012517    7.360963    ( 0.0000,  0.0000,  0.0000)
  55 N      3.506361    4.049460    7.360963    ( 0.0000,  0.0000,  0.0000)
  56 N      1.752595    1.013451   11.233724    ( 0.0000,  0.0000,  0.0000)
  57 N     -0.000706    4.050165   11.307592    ( 0.0000,  0.0000,  0.0000)
  58 N      5.259186    1.013249   11.307577    ( 0.0000,  0.0000,  0.0000)
  59 N      3.505622    4.049967   11.295580    ( 0.0000,  0.0000,  0.0000)
  60 N      1.746875    1.005041   15.069708    ( 0.0000,  0.0000,  0.0000)
  61 N     -0.004423    4.055944   15.289550    ( 0.0000,  0.0000,  0.0000)
  62 N      5.264727    1.013813   15.289436    ( 0.0000,  0.0000,  0.0000)
  63 N      3.507748    4.053793   15.258581    ( 0.0000,  0.0000,  0.0000)
  64 Li     1.993740    1.413648   17.024849    ( 0.0000,  0.0000,  0.0000)

Unit cell:
           periodic     x           y           z      points  spacing
  1. axis:    yes    7.013420    0.000000    0.000000    40     0.1518
  2. axis:    yes   -3.506760    6.073886    0.000000    40     0.1518
  3. axis:    yes    0.000000    0.000000   29.936001   160     0.1871

  Lengths:   7.013420   7.013520  29.936001
  Angles:   90.000000  90.000000 120.000000

Effective grid spacing dv^(1/3) = 0.1708

                     log10-error:    total        iterations:
           time      wfs    density  energy       fermi  poisson
iter:   1  09:24:44                -275.397956    4             
iter:   2  09:25:24  -1.00  -0.51  -262.898534    5             
iter:   3  09:26:04  -0.41  -0.57  -280.362157    31            
iter:   4  09:26:45  -1.86  -0.53  -252.516150    35            
iter:   5  09:27:25  -2.71  -0.71  -250.498434    3             
iter:   6  09:28:05  -1.24  -0.72  -249.003123    31            
iter:   7  09:28:44  -1.31  -0.78  -243.038023    32            
iter:   8  09:29:25  -1.41  -0.88  -238.803320    3             
iter:   9  09:30:07  -1.83  -0.97  -240.274095    5             
iter:  10  09:30:48  -1.76  -0.92  -238.809911    4             
iter:  11  09:31:28  -2.23  -0.93  -236.853181    33            
iter:  12  09:32:08  -1.47  -0.97  -244.957159    36            
iter:  13  09:32:48  -0.19  -0.88  -353.032446    34            
iter:  14  09:33:29  -1.49  -0.42  -277.588710    33            
iter:  15  09:34:09  -1.97  -0.57  -263.787967    3             
iter:  16  09:34:49  -0.75  -0.62  -233.381417    34            
iter:  17  09:35:28  -0.95  -1.10  -233.162441    33            
iter:  18  09:36:09  -1.15  -1.18  -232.825560    32            
iter:  19  09:36:49  -0.70  -1.23  -234.175973    4             
iter:  20  09:37:28  -0.64  -1.24  -236.254858    33            
iter:  21  09:38:08  -0.91  -1.30  -236.237757    32            
iter:  22  09:38:48  -1.06  -1.26  -238.371385    31            
iter:  23  09:39:27  -1.91  -1.27  -236.372610    5             
iter:  24  09:40:07  -1.55  -1.34  -242.272138    36            
iter:  25  09:40:46  -2.74  -0.99  -235.579039    30            
iter:  26  09:41:27  -2.83  -1.44  -235.134691    3             
iter:  27  09:42:07  -2.79  -1.49  -234.850227    32            
iter:  28  09:42:48  -3.61  -1.57  -234.773576    3             
iter:  29  09:43:29  -2.55  -1.62  -234.763442    3             
iter:  30  09:44:09  -3.92  -1.77  -234.722705    3             
iter:  31  09:44:49  -2.63  -1.85  -234.943510    3             
iter:  32  09:45:29  -2.57  -1.70  -234.784546    3             
iter:  33  09:46:09  -3.45  -1.97  -234.715347    3             
iter:  34  09:46:50  -4.56  -2.36  -234.715117    2             
iter:  35  09:47:30  -4.60  -2.46  -234.713695    3             
iter:  36  09:48:10  -4.52  -2.48  -234.715944    3             
iter:  37  09:48:50  -4.17  -2.61  -234.713335    3             
iter:  38  09:49:30  -5.07  -2.61  -234.715644    2             
iter:  39  09:50:09  -4.84  -2.79  -234.713830    3             
iter:  40  09:50:50  -5.65  -3.01  -234.714738    2             
iter:  41  09:51:30  -6.01  -3.09  -234.714587    2             
iter:  42  09:52:10  -5.69  -3.14  -234.714102    3             
iter:  43  09:52:49  -6.13  -3.27  -234.714168    2             
iter:  44  09:53:30  -6.20  -3.44  -234.714704    2             
iter:  45  09:54:10  -6.36  -3.66  -234.714482    2             
iter:  46  09:54:51  -7.09  -3.71  -234.714571    2             
iter:  47  09:55:31  -7.79  -3.82  -234.714511    2             
iter:  48  09:56:12  -7.72  -3.87  -234.714593    2             
iter:  49  09:56:52  -7.25  -3.95  -234.714466    2             
iter:  50  09:57:33  -7.81  -4.08  -234.714523    2             

Converged after 50 iterations.

Dipole moment: (-2.358379, 1.266873, -11.337274) |e|*Ang

Energy contributions relative to reference atoms: (reference = -33644.147259)

Kinetic:       +256.671903
Potential:     -189.688356
External:        +0.000000
XC:            -300.367434
Entropy (-ST):   -0.075058
Local:           -1.293108
--------------------------
Free energy:   -234.752052
Extrapolated:  -234.714523

Fermi level: -0.23478

Showing only first 2 kpts
 Kpt  Band  Eigenvalues  Occupancy
  0    62     -0.53437    0.07980
  0    63     -0.02642    0.00122
  0    64     -0.00033    0.00073
  0    65      0.21429    0.00001

  1    62     -0.60401    0.15990
  1    63     -0.28848    0.11926
  1    64     -0.11696    0.01385
  1    65      0.38753    0.00000


No gap

Forces in eV/Ang:
  0 Li   -0.00007    0.00006   -0.04718
  1 Li   -0.00007    0.00005   -0.04738
  2 Li   -0.00008    0.00005   -0.04738
  3 Li   -0.00008    0.00005   -0.04733
  4 Li   -0.00132   -0.00279   -0.06095
  5 Li   -0.00093   -0.00462    0.06831
  6 Li   -0.00469    0.00208    0.06830
  7 Li    0.00168   -0.00202    0.00510
  8 Li   -0.19000    0.18961   -0.22321
  9 Li    0.03033    0.06503   -0.28103
 10 Li    0.16557   -0.04116    0.11232
 11 Li   -0.24748    0.13678    0.21677
 12 Li    0.27405   -0.07954   -0.21888
 13 Li   -0.12492    0.12168    0.11193
 14 Li    0.04129    0.06490   -0.28494
 15 Li    0.23104   -0.13737    0.20649
 16 Li   -0.00000   -0.00011   -0.04173
 17 Li   -0.00002   -0.00014   -0.04175
 18 Li    0.00002   -0.00008   -0.04181
 19 Li    0.00003   -0.00013   -0.04168
 20 Li   -0.00006    0.00006   -0.04173
 21 Li   -0.00005    0.00010   -0.04182
 22 Li   -0.00009    0.00004   -0.04176
 23 Li   -0.00010    0.00009   -0.04166
 24 Li    0.00006    0.00014   -0.05261
 25 Li    0.00010   -0.00003   -0.04638
 26 Li   -0.00008    0.00002   -0.04639
 27 Li   -0.00012   -0.00012   -0.04749
 28 Li    0.00380   -0.00247    0.00373
 29 Li   -0.00116    0.00440    0.00024
 30 Li   -0.00401   -0.00128    0.00320
 31 Li    0.00081   -0.00029    0.01089
 32 Li   -0.00454    0.00250    0.00379
 33 Li    0.00054   -0.00388    0.00368
 34 Li    0.00413    0.00160    0.00071
 35 Li   -0.00110    0.00094    0.00989
 36 Li   -0.00227   -0.00454   -0.01609
 37 Li   -0.00327    0.00157    0.00714
 38 Li    0.00206   -0.00014    0.00712
 39 Li    0.00362    0.00387   -0.00045
 40 Li   -0.01168    0.01055    0.00932
 41 Li    0.00224   -0.01032    0.01092
 42 Li    0.00892    0.00385    0.00495
 43 Li   -0.00740    0.00051    0.00859
 44 Li    0.01560   -0.00511    0.00894
 45 Li   -0.00129    0.00984    0.00605
 46 Li   -0.01042   -0.00315    0.01193
 47 Li    0.00386   -0.00615    0.00503
 48 N    -0.00025    0.00007    0.07797
 49 N    -0.00023    0.00019    0.08814
 50 N    -0.00017    0.00018    0.08815
 51 N    -0.00011    0.00025    0.08298
 52 N     0.00047    0.00116   -0.04626
 53 N     0.00078   -0.00024    0.07847
 54 N    -0.00062    0.00010    0.07847
 55 N    -0.00102   -0.00085    0.06291
 56 N    -0.00218   -0.00281   -0.04086
 57 N     0.00037    0.00125   -0.01209
 58 N     0.00125   -0.00071   -0.01200
 59 N     0.00178    0.00459   -0.00911
 60 N     0.19292    0.32176    0.96075
 61 N     0.10709   -0.16568    0.04527
 62 N    -0.19677    0.00088    0.04881
 63 N    -0.12551   -0.21407   -0.02748
 64 Li   -0.15541   -0.25791   -0.61407

System changes: positions 

Initializing position-dependent things.

Density initialized from wave functions
                                         
                                         
                                         
                                         
                                         
                   Li                    
           Li    Li       Li             
              N   Li   N                 
             Li       Li                 
              LiN   Li LiN  Li           
                                         
           Li N Li Li    Li              
                  Li   N  Li             
             Li      Li  N               
              LiN   Li Li   Li           
                                         
           Li N Li Li  N Li              
                  Li      Li             
             Li N    Li  N               
              Li    Li Li   Li           
           Li      Li                    
              N Li     N Li              
             Li   Li Li   Li             
                N        N               
              Li    Li Li   Li           
                                         
                Li       Li              
                                         
                                         
                                         
                                         

Positions:
   0 Li     1.753189    1.012426    1.530029    ( 0.0000,  0.0000,  0.0000)
   1 Li    -0.000191    4.049369    1.530029    ( 0.0000,  0.0000,  0.0000)
   2 Li     5.259899    1.012426    1.530029    ( 0.0000,  0.0000,  0.0000)
   3 Li     3.506519    4.049369    1.530029    ( 0.0000,  0.0000,  0.0000)
   4 Li     1.753991    1.017781   13.184915    ( 0.0000,  0.0000,  0.0000)
   5 Li     0.003996    4.049560   13.306222    ( 0.0000,  0.0000,  0.0000)
   6 Li     5.257400    1.014105   13.306170    ( 0.0000,  0.0000,  0.0000)
   7 Li     3.501658    4.046268   13.285785    ( 0.0000,  0.0000,  0.0000)
   8 Li     3.570196   -0.046553   15.254787    ( 0.0000,  0.0000,  0.0000)
   9 Li     1.742185    3.116506   15.109592    ( 0.0000,  0.0000,  0.0000)
  10 Li     6.950598   -0.025325   15.114684    ( 0.0000,  0.0000,  0.0000)
  11 Li     5.275342    3.041344   15.955264    ( 0.0000,  0.0000,  0.0000)
  12 Li    -0.074797    2.058167   15.255870    ( 0.0000,  0.0000,  0.0000)
  13 Li    -1.745957    4.996123   15.111701    ( 0.0000,  0.0000,  0.0000)
  14 Li     3.578791    2.056026   15.106208    ( 0.0000,  0.0000,  0.0000)
  15 Li     1.747600    5.077641   15.960244    ( 0.0000,  0.0000,  0.0000)
  16 Li     3.506465    0.000182    3.465092    ( 0.0000,  0.0000,  0.0000)
  17 Li     1.753085    3.037125    3.465092    ( 0.0000,  0.0000,  0.0000)
  18 Li     7.013175    0.000182    3.465092    ( 0.0000,  0.0000,  0.0000)
  19 Li     5.259795    3.037125    3.465092    ( 0.0000,  0.0000,  0.0000)
  20 Li    -0.000262    2.024791    3.465092    ( 0.0000,  0.0000,  0.0000)
  21 Li    -1.753642    5.061734    3.465092    ( 0.0000,  0.0000,  0.0000)
  22 Li     3.506448    2.024791    3.465092    ( 0.0000,  0.0000,  0.0000)
  23 Li     1.753068    5.061734    3.465092    ( 0.0000,  0.0000,  0.0000)
  24 Li     1.753084    1.012487    5.431887    ( 0.0000,  0.0000,  0.0000)
  25 Li    -0.000296    4.049430    5.431887    ( 0.0000,  0.0000,  0.0000)
  26 Li     5.259794    1.012487    5.431887    ( 0.0000,  0.0000,  0.0000)
  27 Li     3.506414    4.049430    5.431887    ( 0.0000,  0.0000,  0.0000)
  28 Li     3.506429    0.000182    7.378027    ( 0.0000,  0.0000,  0.0000)
  29 Li     1.753049    3.037125    7.378027    ( 0.0000,  0.0000,  0.0000)
  30 Li     7.013139    0.000182    7.378027    ( 0.0000,  0.0000,  0.0000)
  31 Li     5.259759    3.037125    7.378027    ( 0.0000,  0.0000,  0.0000)
  32 Li    -0.000297    2.024791    7.378027    ( 0.0000,  0.0000,  0.0000)
  33 Li    -1.753677    5.061734    7.378027    ( 0.0000,  0.0000,  0.0000)
  34 Li     3.506413    2.024791    7.378027    ( 0.0000,  0.0000,  0.0000)
  35 Li     1.753033    5.061734    7.378027    ( 0.0000,  0.0000,  0.0000)
  36 Li     1.753331    1.013866    9.319134    ( 0.0000,  0.0000,  0.0000)
  37 Li     0.000168    4.049448    9.353488    ( 0.0000,  0.0000,  0.0000)
  38 Li     5.259108    1.012619    9.353481    ( 0.0000,  0.0000,  0.0000)
  39 Li     3.505250    4.049013    9.348004    ( 0.0000,  0.0000,  0.0000)
  40 Li     3.508347   -0.001073   11.287245    ( 0.0000,  0.0000,  0.0000)
  41 Li     1.751890    3.040793   11.266349    ( 0.0000,  0.0000,  0.0000)
  42 Li     7.010236   -0.000209   11.267942    ( 0.0000,  0.0000,  0.0000)
  43 Li     5.260046    3.038056   11.380671    ( 0.0000,  0.0000,  0.0000)
  44 Li    -0.003969    2.026776   11.287129    ( 0.0000,  0.0000,  0.0000)
  45 Li    -1.753906    5.059715   11.268192    ( 0.0000,  0.0000,  0.0000)
  46 Li     3.508907    2.026458   11.266559    ( 0.0000,  0.0000,  0.0000)
  47 Li     1.752230    5.063310   11.380334    ( 0.0000,  0.0000,  0.0000)
  48 N      1.753084    1.012487    3.439048    ( 0.0000,  0.0000,  0.0000)
  49 N     -0.000296    4.049430    3.439048    ( 0.0000,  0.0000,  0.0000)
  50 N      5.259794    1.012487    3.439048    ( 0.0000,  0.0000,  0.0000)
  51 N      3.506414    4.049430    3.439048    ( 0.0000,  0.0000,  0.0000)
  52 N      1.753031    1.012517    7.360963    ( 0.0000,  0.0000,  0.0000)
  53 N     -0.000349    4.049460    7.360963    ( 0.0000,  0.0000,  0.0000)
  54 N      5.259741    1.012517    7.360963    ( 0.0000,  0.0000,  0.0000)
  55 N      3.506361    4.049460    7.360963    ( 0.0000,  0.0000,  0.0000)
  56 N      1.752561    1.013409   11.233286    ( 0.0000,  0.0000,  0.0000)
  57 N     -0.000703    4.050184   11.307419    ( 0.0000,  0.0000,  0.0000)
  58 N      5.259205    1.013237   11.307406    ( 0.0000,  0.0000,  0.0000)
  59 N      3.505647    4.050035   11.295309    ( 0.0000,  0.0000,  0.0000)
  60 N      1.749571    1.009546   15.083787    ( 0.0000,  0.0000,  0.0000)
  61 N     -0.002949    4.053609   15.290167    ( 0.0000,  0.0000,  0.0000)
  62 N      5.261961    1.013799   15.290102    ( 0.0000,  0.0000,  0.0000)
  63 N      3.505975    4.050767   15.257785    ( 0.0000,  0.0000,  0.0000)
  64 Li     1.994577    1.415085   17.017032    ( 0.0000,  0.0000,  0.0000)

Unit cell:
           periodic     x           y           z      points  spacing
  1. axis:    yes    7.013420    0.000000    0.000000    40     0.1518
  2. axis:    yes   -3.506760    6.073886    0.000000    40     0.1518
  3. axis:    yes    0.000000    0.000000   29.936001   160     0.1871

  Lengths:   7.013420   7.013520  29.936001
  Angles:   90.000000  90.000000 120.000000

Effective grid spacing dv^(1/3) = 0.1708

                     log10-error:    total        iterations:
           time      wfs    density  energy       fermi  poisson
iter:   1  10:02:37  -3.73         -234.744814    3             
iter:   2  10:03:17  -4.65  -2.66  -234.766491    3             
iter:   3  10:03:57  -5.45  -2.42  -234.745507    3             
iter:   4  10:04:37  -4.76  -3.01  -234.742831    2             
iter:   5  10:05:17  -5.78  -3.10  -234.744984    2             
iter:   6  10:05:59  -5.42  -3.24  -234.742239    3             
iter:   7  10:06:39  -6.17  -2.93  -234.744602    2             
iter:   8  10:07:19  -6.63  -3.42  -234.743560    2             
iter:   9  10:07:59  -7.53  -3.66  -234.743615    2             
iter:  10  10:08:40  -6.33  -3.75  -234.743725    2             
iter:  11  10:09:20  -7.15  -4.28  -234.743716    2             

Converged after 11 iterations.

Dipole moment: (-2.364031, 1.263645, -11.344690) |e|*Ang

Energy contributions relative to reference atoms: (reference = -33644.147259)

Kinetic:       +256.734295
Potential:     -189.770272
External:        +0.000000
XC:            -300.386459
Entropy (-ST):   -0.075122
Local:           -1.283720
--------------------------
Free energy:   -234.781277
Extrapolated:  -234.743716

Fermi level: -0.23662

Showing only first 2 kpts
 Kpt  Band  Eigenvalues  Occupancy
  0    62     -0.54183    0.07982
  0    63     -0.02472    0.00114
  0    64     -0.00361    0.00075
  0    65      0.20979    0.00001

  1    62     -0.60669    0.15990
  1    63     -0.28934    0.11866
  1    64     -0.11970    0.01408
  1    65      0.38447    0.00000


No gap

Forces in eV/Ang:
  0 Li   -0.00007    0.00005   -0.04849
  1 Li   -0.00007    0.00005   -0.04871
  2 Li   -0.00008    0.00005   -0.04871
  3 Li   -0.00008    0.00005   -0.04865
  4 Li   -0.00164   -0.00343    0.00972
  5 Li   -0.00396   -0.00329    0.06104
  6 Li   -0.00193   -0.00005    0.06115
  7 Li    0.00305    0.00072    0.00103
  8 Li   -0.16461    0.15943   -0.19996
  9 Li    0.03211    0.06362   -0.26488
 10 Li    0.13801   -0.03281    0.12085
 11 Li   -0.22459    0.11950    0.21206
 12 Li    0.23306   -0.07127   -0.19525
 13 Li   -0.10269    0.10228    0.12047
 14 Li    0.03916    0.06464   -0.26870
 15 Li    0.20614   -0.12729    0.20222
 16 Li    0.00001   -0.00012   -0.04112
 17 Li   -0.00002   -0.00013   -0.04114
 18 Li    0.00001   -0.00009   -0.04120
 19 Li    0.00003   -0.00013   -0.04105
 20 Li   -0.00008    0.00007   -0.04112
 21 Li   -0.00005    0.00009   -0.04121
 22 Li   -0.00007    0.00004   -0.04115
 23 Li   -0.00010    0.00009   -0.04104
 24 Li    0.00007    0.00016   -0.05358
 25 Li    0.00011   -0.00004   -0.04726
 26 Li   -0.00009    0.00003   -0.04726
 27 Li   -0.00013   -0.00014   -0.04842
 28 Li    0.00401   -0.00252    0.00411
 29 Li   -0.00118    0.00456    0.00067
 30 Li   -0.00422   -0.00131    0.00343
 31 Li    0.00083   -0.00037    0.01143
 32 Li   -0.00469    0.00265    0.00417
 33 Li    0.00061   -0.00407    0.00389
 34 Li    0.00427    0.00167    0.00112
 35 Li   -0.00117    0.00092    0.01046
 36 Li   -0.00216   -0.00433   -0.01779
 37 Li   -0.00316    0.00150    0.00541
 38 Li    0.00197   -0.00009    0.00539
 39 Li    0.00349    0.00368   -0.00148
 40 Li   -0.00828    0.00804    0.00839
 41 Li    0.00180   -0.00706    0.00924
 42 Li    0.00588    0.00264    0.00405
 43 Li   -0.00596    0.00035    0.00913
 44 Li    0.01165   -0.00337    0.00797
 45 Li   -0.00081    0.00662    0.00511
 46 Li   -0.00738   -0.00193    0.01018
 47 Li    0.00306   -0.00502    0.00573
 48 N    -0.00022    0.00011    0.07542
 49 N    -0.00023    0.00019    0.08721
 50 N    -0.00017    0.00017    0.08721
 51 N    -0.00012    0.00025    0.08182
 52 N     0.00040    0.00100   -0.04651
 53 N     0.00063   -0.00023    0.07908
 54 N    -0.00056   -0.00002    0.07908
 55 N    -0.00093   -0.00071    0.06304
 56 N    -0.00090   -0.00077   -0.02625
 57 N     0.00115    0.00062   -0.00846
 58 N     0.00022    0.00005   -0.00830
 59 N     0.00063    0.00222   -0.00774
 60 N     0.16262    0.27037    0.78306
 61 N     0.07586   -0.12705    0.02924
 62 N    -0.14690   -0.00484    0.03252
 63 N    -0.09814   -0.16634   -0.03845
 64 Li   -0.14678   -0.24363   -0.55109

System changes: positions 

Initializing position-dependent things.

Density initialized from wave functions
                                         
                                         
                                         
                                         
                                         
                   Li                    
          Li     Li       Li             
              N   Li   N                 
             Li       Li                 
              LiN   Li LiN  Li           
                                         
           Li N Li Li  N Li              
                  Li      Li             
             Li      Li  N               
              LiN   Li Li   Li           
                                         
           Li N Li Li  N Li              
                  Li      Li             
             Li N    Li  N               
              Li    Li Li   Li           
           Li      Li                    
              N Li     N Li              
             Li   Li Li   Li             
                N        N               
              Li    Li Li   Li           
                                         
                Li       Li              
                                         
                                         
                                         
                                         

Positions:
   0 Li     1.753189    1.012426    1.530029    ( 0.0000,  0.0000,  0.0000)
   1 Li    -0.000191    4.049369    1.530029    ( 0.0000,  0.0000,  0.0000)
   2 Li     5.259899    1.012426    1.530029    ( 0.0000,  0.0000,  0.0000)
   3 Li     3.506519    4.049369    1.530029    ( 0.0000,  0.0000,  0.0000)
   4 Li     1.753671    1.017309   13.187379    ( 0.0000,  0.0000,  0.0000)
   5 Li     0.003541    4.049268   13.313294    ( 0.0000,  0.0000,  0.0000)
   6 Li     5.257314    1.013885   13.313251    ( 0.0000,  0.0000,  0.0000)
   7 Li     3.501970    4.046554   13.284157    ( 0.0000,  0.0000,  0.0000)
   8 Li     3.549724   -0.028045   15.243521    ( 0.0000,  0.0000,  0.0000)
   9 Li     1.744399    3.123278   15.075948    ( 0.0000,  0.0000,  0.0000)
  10 Li     6.967847   -0.027682   15.128927    ( 0.0000,  0.0000,  0.0000)
  11 Li     5.250450    3.055282   15.967527    ( 0.0000,  0.0000,  0.0000)
  12 Li    -0.047098    2.048773   15.245179    ( 0.0000,  0.0000,  0.0000)
  13 Li    -1.757216    5.009816   15.125678    ( 0.0000,  0.0000,  0.0000)
  14 Li     3.583555    2.061912   15.071791    ( 0.0000,  0.0000,  0.0000)
  15 Li     1.771033    5.063862   15.971807    ( 0.0000,  0.0000,  0.0000)
  16 Li     3.506465    0.000182    3.465092    ( 0.0000,  0.0000,  0.0000)
  17 Li     1.753085    3.037125    3.465092    ( 0.0000,  0.0000,  0.0000)
  18 Li     7.013175    0.000182    3.465092    ( 0.0000,  0.0000,  0.0000)
  19 Li     5.259795    3.037125    3.465092    ( 0.0000,  0.0000,  0.0000)
  20 Li    -0.000262    2.024791    3.465092    ( 0.0000,  0.0000,  0.0000)
  21 Li    -1.753642    5.061734    3.465092    ( 0.0000,  0.0000,  0.0000)
  22 Li     3.506448    2.024791    3.465092    ( 0.0000,  0.0000,  0.0000)
  23 Li     1.753068    5.061734    3.465092    ( 0.0000,  0.0000,  0.0000)
  24 Li     1.753084    1.012487    5.431887    ( 0.0000,  0.0000,  0.0000)
  25 Li    -0.000296    4.049430    5.431887    ( 0.0000,  0.0000,  0.0000)
  26 Li     5.259794    1.012487    5.431887    ( 0.0000,  0.0000,  0.0000)
  27 Li     3.506414    4.049430    5.431887    ( 0.0000,  0.0000,  0.0000)
  28 Li     3.506429    0.000182    7.378027    ( 0.0000,  0.0000,  0.0000)
  29 Li     1.753049    3.037125    7.378027    ( 0.0000,  0.0000,  0.0000)
  30 Li     7.013139    0.000182    7.378027    ( 0.0000,  0.0000,  0.0000)
  31 Li     5.259759    3.037125    7.378027    ( 0.0000,  0.0000,  0.0000)
  32 Li    -0.000297    2.024791    7.378027    ( 0.0000,  0.0000,  0.0000)
  33 Li    -1.753677    5.061734    7.378027    ( 0.0000,  0.0000,  0.0000)
  34 Li     3.506413    2.024791    7.378027    ( 0.0000,  0.0000,  0.0000)
  35 Li     1.753033    5.061734    7.378027    ( 0.0000,  0.0000,  0.0000)
  36 Li     1.753061    1.013349    9.317572    ( 0.0000,  0.0000,  0.0000)
  37 Li    -0.000181    4.049632    9.354115    ( 0.0000,  0.0000,  0.0000)
  38 Li     5.259355    1.012578    9.354106    ( 0.0000,  0.0000,  0.0000)
  39 Li     3.505627    4.049474    9.347367    ( 0.0000,  0.0000,  0.0000)
  40 Li     3.507312   -0.000112   11.289893    ( 0.0000,  0.0000,  0.0000)
  41 Li     1.752050    3.039880   11.267407    ( 0.0000,  0.0000,  0.0000)
  42 Li     7.010972    0.000173   11.268391    ( 0.0000,  0.0000,  0.0000)
  43 Li     5.259389    3.038077   11.380066    ( 0.0000,  0.0000,  0.0000)
  44 Li    -0.002586    2.026352   11.289732    ( 0.0000,  0.0000,  0.0000)
  45 Li    -1.753969    5.060563   11.268776    ( 0.0000,  0.0000,  0.0000)
  46 Li     3.507995    2.026155   11.267740    ( 0.0000,  0.0000,  0.0000)
  47 Li     1.752535    5.062758   11.379305    ( 0.0000,  0.0000,  0.0000)
  48 N      1.753084    1.012487    3.439048    ( 0.0000,  0.0000,  0.0000)
  49 N     -0.000296    4.049430    3.439048    ( 0.0000,  0.0000,  0.0000)
  50 N      5.259794    1.012487    3.439048    ( 0.0000,  0.0000,  0.0000)
  51 N      3.506414    4.049430    3.439048    ( 0.0000,  0.0000,  0.0000)
  52 N      1.753031    1.012517    7.360963    ( 0.0000,  0.0000,  0.0000)
  53 N     -0.000349    4.049460    7.360963    ( 0.0000,  0.0000,  0.0000)
  54 N      5.259741    1.012517    7.360963    ( 0.0000,  0.0000,  0.0000)
  55 N      3.506361    4.049460    7.360963    ( 0.0000,  0.0000,  0.0000)
  56 N      1.752430    1.013294   11.231248    ( 0.0000,  0.0000,  0.0000)
  57 N     -0.000590    4.050266   11.306400    ( 0.0000,  0.0000,  0.0000)
  58 N      5.259241    1.013223   11.306405    ( 0.0000,  0.0000,  0.0000)
  59 N      3.505720    4.050325   11.293371    ( 0.0000,  0.0000,  0.0000)
  60 N      1.768388    1.040907   15.178167    ( 0.0000,  0.0000,  0.0000)
  61 N      0.005705    4.038828   15.293405    ( 0.0000,  0.0000,  0.0000)
  62 N      5.244882    1.013111   15.293720    ( 0.0000,  0.0000,  0.0000)
  63 N      3.494461    4.031238   15.250452    ( 0.0000,  0.0000,  0.0000)
  64 Li     1.999896    1.424264   16.959686    ( 0.0000,  0.0000,  0.0000)

Unit cell:
           periodic     x           y           z      points  spacing
  1. axis:    yes    7.013420    0.000000    0.000000    40     0.1518
  2. axis:    yes   -3.506760    6.073886    0.000000    40     0.1518
  3. axis:    yes    0.000000    0.000000   29.936001   160     0.1871

  Lengths:   7.013420   7.013520  29.936001
  Angles:   90.000000  90.000000 120.000000

Effective grid spacing dv^(1/3) = 0.1708

                     log10-error:    total        iterations:
           time      wfs    density  energy       fermi  poisson
iter:   1  10:12:12  -2.08         -234.929347    3             
iter:   2  10:12:52  -3.20  -1.98  -235.007652    5             
iter:   3  10:13:32  -4.11  -1.91  -234.875469    3             
iter:   4  10:14:13  -3.22  -2.21  -234.942883    3             
iter:   5  10:14:54  -4.23  -1.88  -234.828437    3             
iter:   6  10:15:35  -4.36  -2.58  -234.821402    3             
iter:   7  10:16:15  -4.06  -2.62  -234.826065    3             
iter:   8  10:16:55  -5.12  -2.64  -234.818949    2             
iter:   9  10:17:35  -5.51  -2.96  -234.817577    3             
iter:  10  10:18:16  -5.33  -2.95  -234.818059    3             
iter:  11  10:18:56  -5.56  -3.31  -234.817857    2             
iter:  12  10:19:36  -6.11  -3.46  -234.818309    2             
iter:  13  10:20:16  -6.76  -3.66  -234.818245    2             
iter:  14  10:20:56  -6.89  -3.70  -234.818331    2             
iter:  15  10:21:37  -6.56  -3.71  -234.818143    2             
iter:  16  10:22:17  -7.35  -3.88  -234.818188    2             
iter:  17  10:22:57  -6.54  -3.99  -234.818153    2             
iter:  18  10:23:37  -7.76  -4.19  -234.818174    2             

Converged after 18 iterations.

Dipole moment: (-2.377312, 1.239813, -11.357872) |e|*Ang

Energy contributions relative to reference atoms: (reference = -33644.147259)

Kinetic:       +257.581263
Potential:     -190.430941
External:        +0.000000
XC:            -300.647621
Entropy (-ST):   -0.075613
Local:           -1.283069
--------------------------
Free energy:   -234.855981
Extrapolated:  -234.818174

Fermi level: -0.24386

Showing only first 2 kpts
 Kpt  Band  Eigenvalues  Occupancy
  0    62     -0.55766    0.07985
  0    63     -0.02735    0.00104
  0    64     -0.01201    0.00077
  0    65      0.18872    0.00001

  1    62     -0.61831    0.15991
  1    63     -0.29250    0.11611
  1    64     -0.13553    0.01645
  1    65      0.37203    0.00000


No gap

Forces in eV/Ang:
  0 Li   -0.00007    0.00006   -0.05025
  1 Li   -0.00007    0.00005   -0.05043
  2 Li   -0.00008    0.00005   -0.05043
  3 Li   -0.00008    0.00004   -0.05036
  4 Li   -0.00083   -0.00248    0.29190
  5 Li   -0.02751    0.00735    0.01106
  6 Li    0.02030   -0.01648    0.01205
  7 Li    0.01495    0.02481   -0.02640
  8 Li    0.01944   -0.02096   -0.04687
  9 Li    0.03977    0.05057   -0.14825
 10 Li   -0.04256    0.01859    0.15761
 11 Li   -0.07189   -0.00594    0.16689
 12 Li   -0.02887    0.00756   -0.04049
 13 Li    0.03992   -0.02598    0.15730
 14 Li    0.02441    0.05702   -0.15069
 15 Li    0.03073   -0.06462    0.15981
 16 Li    0.00007   -0.00015   -0.04265
 17 Li   -0.00003   -0.00007   -0.04274
 18 Li   -0.00006   -0.00010   -0.04274
 19 Li    0.00005   -0.00015   -0.04253
 20 Li   -0.00013    0.00011   -0.04265
 21 Li   -0.00003    0.00002   -0.04274
 22 Li   -0.00002    0.00006   -0.04275
 23 Li   -0.00012    0.00009   -0.04252
 24 Li   -0.00001    0.00001   -0.05746
 25 Li    0.00002    0.00000   -0.05037
 26 Li   -0.00001   -0.00002   -0.05037
 27 Li   -0.00004    0.00001   -0.05186
 28 Li    0.00524   -0.00321    0.00248
 29 Li   -0.00157    0.00573   -0.00066
 30 Li   -0.00546   -0.00154    0.00063
 31 Li    0.00124   -0.00060    0.01046
 32 Li   -0.00587    0.00336    0.00255
 33 Li    0.00102   -0.00523    0.00098
 34 Li    0.00543    0.00191   -0.00033
 35 Li   -0.00157    0.00114    0.00971
 36 Li   -0.00107   -0.00240   -0.01690
 37 Li   -0.00193    0.00083   -0.00393
 38 Li    0.00088    0.00048   -0.00388
 39 Li    0.00224    0.00172   -0.00663
 40 Li    0.01241   -0.00593    0.00417
 41 Li   -0.00067    0.01113    0.00125
 42 Li   -0.01200   -0.00336   -0.00011
 43 Li    0.00296   -0.00225    0.01242
 44 Li   -0.01129    0.00781    0.00355
 45 Li    0.00304   -0.01169    0.00037
 46 Li    0.00960    0.00487    0.00156
 47 Li   -0.00326    0.00127    0.01044
 48 N    -0.00009    0.00036    0.08101
 49 N    -0.00020    0.00023    0.09483
 50 N    -0.00014    0.00022    0.09487
 51 N    -0.00016    0.00020    0.08771
 52 N    -0.00007    0.00014   -0.04172
 53 N     0.00006   -0.00009    0.08487
 54 N    -0.00021   -0.00030    0.08489
 55 N    -0.00049   -0.00011    0.06655
 56 N    -0.00070   -0.00163    0.06068
 57 N    -0.00085    0.00083    0.02529
 58 N     0.00072    0.00130    0.02567
 59 N     0.00088   -0.00010    0.01163
 60 N    -0.08314   -0.14307   -0.58015
 61 N    -0.09858    0.08942   -0.06026
 62 N     0.13048   -0.03634   -0.05916
 63 N     0.07528    0.13368   -0.08359
 64 Li   -0.04318   -0.07224    0.15982

System changes: positions 

Initializing position-dependent things.

Density initialized from wave functions
                                         
                                         
                                         
                                         
                                         
                   Li                    
           Li    Li       Li             
              N   Li   N                 
             Li       Li                 
              LiN   Li LiN  Li           
                                         
           Li N Li Li  N Li              
                  Li      Li             
             Li      Li  N               
              LiN   Li Li   Li           
                                         
           Li N Li Li  N Li              
                  Li      Li             
             Li N    Li  N               
              Li    Li Li   Li           
           Li      Li                    
              N Li     N Li              
             Li   Li Li   Li             
                N        N               
              Li    Li Li   Li           
                                         
                Li       Li              
                                         
                                         
                                         
                                         

Positions:
   0 Li     1.753189    1.012426    1.530029    ( 0.0000,  0.0000,  0.0000)
   1 Li    -0.000191    4.049369    1.530029    ( 0.0000,  0.0000,  0.0000)
   2 Li     5.259899    1.012426    1.530029    ( 0.0000,  0.0000,  0.0000)
   3 Li     3.506519    4.049369    1.530029    ( 0.0000,  0.0000,  0.0000)
   4 Li     1.753627    1.017233   13.191786    ( 0.0000,  0.0000,  0.0000)
   5 Li     0.003098    4.049359   13.314047    ( 0.0000,  0.0000,  0.0000)
   6 Li     5.257614    1.013613   13.314019    ( 0.0000,  0.0000,  0.0000)
   7 Li     3.502213    4.046952   13.283556    ( 0.0000,  0.0000,  0.0000)
   8 Li     3.548191   -0.026755   15.242538    ( 0.0000,  0.0000,  0.0000)
   9 Li     1.745082    3.124511   15.070841    ( 0.0000,  0.0000,  0.0000)
  10 Li     6.968726   -0.027555   15.132382    ( 0.0000,  0.0000,  0.0000)
  11 Li     5.247340    3.056369   15.970328    ( 0.0000,  0.0000,  0.0000)
  12 Li    -0.045110    2.048034   15.244338    ( 0.0000,  0.0000,  0.0000)
  13 Li    -1.757558    5.010660   15.129097    ( 0.0000,  0.0000,  0.0000)
  14 Li     3.584289    2.063128   15.066568    ( 0.0000,  0.0000,  0.0000)
  15 Li     1.773437    5.061788   15.974470    ( 0.0000,  0.0000,  0.0000)
  16 Li     3.506465    0.000182    3.465092    ( 0.0000,  0.0000,  0.0000)
  17 Li     1.753085    3.037125    3.465092    ( 0.0000,  0.0000,  0.0000)
  18 Li     7.013175    0.000182    3.465092    ( 0.0000,  0.0000,  0.0000)
  19 Li     5.259795    3.037125    3.465092    ( 0.0000,  0.0000,  0.0000)
  20 Li    -0.000262    2.024791    3.465092    ( 0.0000,  0.0000,  0.0000)
  21 Li    -1.753642    5.061734    3.465092    ( 0.0000,  0.0000,  0.0000)
  22 Li     3.506448    2.024791    3.465092    ( 0.0000,  0.0000,  0.0000)
  23 Li     1.753068    5.061734    3.465092    ( 0.0000,  0.0000,  0.0000)
  24 Li     1.753084    1.012487    5.431887    ( 0.0000,  0.0000,  0.0000)
  25 Li    -0.000296    4.049430    5.431887    ( 0.0000,  0.0000,  0.0000)
  26 Li     5.259794    1.012487    5.431887    ( 0.0000,  0.0000,  0.0000)
  27 Li     3.506414    4.049430    5.431887    ( 0.0000,  0.0000,  0.0000)
  28 Li     3.506429    0.000182    7.378027    ( 0.0000,  0.0000,  0.0000)
  29 Li     1.753049    3.037125    7.378027    ( 0.0000,  0.0000,  0.0000)
  30 Li     7.013139    0.000182    7.378027    ( 0.0000,  0.0000,  0.0000)
  31 Li     5.259759    3.037125    7.378027    ( 0.0000,  0.0000,  0.0000)
  32 Li    -0.000297    2.024791    7.378027    ( 0.0000,  0.0000,  0.0000)
  33 Li    -1.753677    5.061734    7.378027    ( 0.0000,  0.0000,  0.0000)
  34 Li     3.506413    2.024791    7.378027    ( 0.0000,  0.0000,  0.0000)
  35 Li     1.753033    5.061734    7.378027    ( 0.0000,  0.0000,  0.0000)
  36 Li     1.753023    1.013272    9.317236    ( 0.0000,  0.0000,  0.0000)
  37 Li    -0.000236    4.049659    9.354113    ( 0.0000,  0.0000,  0.0000)
  38 Li     5.259388    1.012580    9.354104    ( 0.0000,  0.0000,  0.0000)
  39 Li     3.505689    4.049538    9.347196    ( 0.0000,  0.0000,  0.0000)
  40 Li     3.507403   -0.000116   11.290255    ( 0.0000,  0.0000,  0.0000)
  41 Li     1.752051    3.039962   11.267513    ( 0.0000,  0.0000,  0.0000)
  42 Li     7.010862    0.000159   11.268423    ( 0.0000,  0.0000,  0.0000)
  43 Li     5.259378    3.038045   11.380114    ( 0.0000,  0.0000,  0.0000)
  44 Li    -0.002633    2.026429   11.290081    ( 0.0000,  0.0000,  0.0000)
  45 Li    -1.753928    5.060468   11.268827    ( 0.0000,  0.0000,  0.0000)
  46 Li     3.508056    2.026197   11.267862    ( 0.0000,  0.0000,  0.0000)
  47 Li     1.752510    5.062731   11.379287    ( 0.0000,  0.0000,  0.0000)
  48 N      1.753084    1.012487    3.439048    ( 0.0000,  0.0000,  0.0000)
  49 N     -0.000296    4.049430    3.439048    ( 0.0000,  0.0000,  0.0000)
  50 N      5.259794    1.012487    3.439048    ( 0.0000,  0.0000,  0.0000)
  51 N      3.506414    4.049430    3.439048    ( 0.0000,  0.0000,  0.0000)
  52 N      1.753031    1.012517    7.360963    ( 0.0000,  0.0000,  0.0000)
  53 N     -0.000349    4.049460    7.360963    ( 0.0000,  0.0000,  0.0000)
  54 N      5.259741    1.012517    7.360963    ( 0.0000,  0.0000,  0.0000)
  55 N      3.506361    4.049460    7.360963    ( 0.0000,  0.0000,  0.0000)
  56 N      1.752403    1.013251   11.232006    ( 0.0000,  0.0000,  0.0000)
  57 N     -0.000597    4.050287   11.306681    ( 0.0000,  0.0000,  0.0000)
  58 N      5.259258    1.013238   11.306693    ( 0.0000,  0.0000,  0.0000)
  59 N      3.505743    4.050356   11.293335    ( 0.0000,  0.0000,  0.0000)
  60 N      1.768780    1.041502   15.177604    ( 0.0000,  0.0000,  0.0000)
  61 N      0.005029    4.038870   15.292798    ( 0.0000,  0.0000,  0.0000)
  62 N      5.245309    1.012541   15.293162    ( 0.0000,  0.0000,  0.0000)
  63 N      3.494553    4.031478   15.248532    ( 0.0000,  0.0000,  0.0000)
  64 Li     2.000835    1.425861   16.957736    ( 0.0000,  0.0000,  0.0000)

Unit cell:
           periodic     x           y           z      points  spacing
  1. axis:    yes    7.013420    0.000000    0.000000    40     0.1518
  2. axis:    yes   -3.506760    6.073886    0.000000    40     0.1518
  3. axis:    yes    0.000000    0.000000   29.936001   160     0.1871

  Lengths:   7.013420   7.013520  29.936001
  Angles:   90.000000  90.000000 120.000000

Effective grid spacing dv^(1/3) = 0.1708

                     log10-error:    total        iterations:
           time      wfs    density  energy       fermi  poisson
iter:   1  10:28:57  -4.24         -234.823616    2             
iter:   2  10:29:37  -5.35  -3.40  -234.823660    2             
iter:   3  10:30:17  -5.70  -3.44  -234.823003    2             
iter:   4  10:30:58  -6.60  -3.45  -234.823790    2             
iter:   5  10:31:38  -6.82  -3.55  -234.823398    2             
iter:   6  10:32:18  -6.31  -3.67  -234.823319    2             
iter:   7  10:32:58  -6.60  -3.84  -234.823326    2             
iter:   8  10:33:39  -6.72  -3.87  -234.823466    2             
iter:   9  10:34:20  -7.92  -4.24  -234.823463    2             

Converged after 9 iterations.

Dipole moment: (-2.347715, 1.228386, -11.357627) |e|*Ang

Energy contributions relative to reference atoms: (reference = -33644.147259)

Kinetic:       +257.563165
Potential:     -190.417607
External:        +0.000000
XC:            -300.642805
Entropy (-ST):   -0.075527
Local:           -1.288453
--------------------------
Free energy:   -234.861227
Extrapolated:  -234.823463

Fermi level: -0.24365

Showing only first 2 kpts
 Kpt  Band  Eigenvalues  Occupancy
  0    62     -0.55871    0.07985
  0    63     -0.02957    0.00109
  0    64     -0.01057    0.00075
  0    65      0.18955    0.00001

  1    62     -0.62037    0.15991
  1    63     -0.29248    0.11623
  1    64     -0.13652    0.01680
  1    65      0.37263    0.00000


No gap

Forces in eV/Ang:
  0 Li   -0.00007    0.00005   -0.05075
  1 Li   -0.00007    0.00005   -0.05092
  2 Li   -0.00008    0.00005   -0.05092
  3 Li   -0.00008    0.00005   -0.05085
  4 Li   -0.00377   -0.00743    0.25179
  5 Li   -0.03231    0.00970    0.00288
  6 Li    0.02503   -0.01959    0.00389
  7 Li    0.01923    0.03254   -0.02971
  8 Li    0.03807   -0.02922   -0.03943
  9 Li    0.03279    0.04969   -0.13804
 10 Li   -0.04782    0.01867    0.14888
 11 Li   -0.05660   -0.01657    0.15995
 12 Li   -0.04617    0.02005   -0.03318
 13 Li    0.04283   -0.03070    0.14865
 14 Li    0.02731    0.05041   -0.14010
 15 Li    0.01440   -0.05707    0.15325
 16 Li    0.00007   -0.00015   -0.04261
 17 Li   -0.00003   -0.00007   -0.04268
 18 Li   -0.00005   -0.00010   -0.04270
 19 Li    0.00005   -0.00015   -0.04249
 20 Li   -0.00013    0.00011   -0.04261
 21 Li   -0.00003    0.00003   -0.04270
 22 Li   -0.00002    0.00006   -0.04269
 23 Li   -0.00012    0.00009   -0.04247
 24 Li    0.00002    0.00007   -0.05756
 25 Li    0.00005   -0.00001   -0.05042
 26 Li   -0.00004    0.00000   -0.05043
 27 Li   -0.00007   -0.00005   -0.05198
 28 Li    0.00540   -0.00320    0.00264
 29 Li   -0.00154    0.00583   -0.00043
 30 Li   -0.00562   -0.00157    0.00073
 31 Li    0.00120   -0.00068    0.01072
 32 Li   -0.00593    0.00351    0.00271
 33 Li    0.00108   -0.00537    0.00106
 34 Li    0.00549    0.00199   -0.00013
 35 Li   -0.00163    0.00107    0.01002
 36 Li   -0.00103   -0.00232   -0.00845
 37 Li   -0.00186    0.00080   -0.00222
 38 Li    0.00084    0.00050   -0.00215
 39 Li    0.00217    0.00164   -0.00487
 40 Li    0.01027   -0.00524    0.00578
 41 Li   -0.00094    0.00902    0.00222
 42 Li   -0.00970   -0.00236    0.00141
 43 Li    0.00333   -0.00195    0.01209
 44 Li   -0.00964    0.00630    0.00515
 45 Li    0.00275   -0.00924    0.00181
 46 Li    0.00795    0.00362    0.00245
 47 Li   -0.00318    0.00176    0.01027
 48 N    -0.00012    0.00032    0.07935
 49 N    -0.00022    0.00024    0.09313
 50 N    -0.00012    0.00021    0.09317
 51 N    -0.00013    0.00024    0.08564
 52 N    -0.00001    0.00023   -0.04353
 53 N     0.00010   -0.00012    0.08447
 54 N    -0.00028   -0.00025    0.08450
 55 N    -0.00052   -0.00022    0.06510
 56 N    -0.00021   -0.00080    0.06878
 57 N    -0.00062    0.00057    0.02717
 58 N     0.00038    0.00124    0.02756
 59 N     0.00047   -0.00065    0.00865
 60 N    -0.08082   -0.13897   -0.54698
 61 N    -0.09020    0.08436   -0.04797
 62 N     0.12124   -0.03118   -0.04721
 63 N     0.07374    0.13013   -0.06870
 64 Li   -0.03911   -0.06558    0.16620

System changes: positions 

Initializing position-dependent things.

Density initialized from wave functions
                                         
                                         
                                         
                                         
                                         
                   Li                    
           Li    Li       Li             
              N   Li   N                 
             Li       Li                 
              LiN   Li LiN  Li           
                                         
           Li N Li Li  N Li              
                  Li      Li             
             Li      Li  N               
              LiN   Li Li   Li           
                                         
           Li N Li Li  N Li              
                  Li      Li             
             Li N    Li  N               
              Li    Li Li   Li           
           Li      Li                    
              N Li     N Li              
             Li   Li Li   Li             
                N        N               
              Li    Li Li   Li           
                                         
                Li       Li              
                                         
                                         
                                         
                                         

Positions:
   0 Li     1.753189    1.012426    1.530029    ( 0.0000,  0.0000,  0.0000)
   1 Li    -0.000191    4.049369    1.530029    ( 0.0000,  0.0000,  0.0000)
   2 Li     5.259899    1.012426    1.530029    ( 0.0000,  0.0000,  0.0000)
   3 Li     3.506519    4.049369    1.530029    ( 0.0000,  0.0000,  0.0000)
   4 Li     1.752893    1.015941   13.236605    ( 0.0000,  0.0000,  0.0000)
   5 Li    -0.002388    4.050775   13.319232    ( 0.0000,  0.0000,  0.0000)
   6 Li     5.261647    1.010216   13.319373    ( 0.0000,  0.0000,  0.0000)
   7 Li     3.505395    4.052313   13.276878    ( 0.0000,  0.0000,  0.0000)
   8 Li     3.540000   -0.019421   15.236149    ( 0.0000,  0.0000,  0.0000)
   9 Li     1.751297    3.136137   15.025325    ( 0.0000,  0.0000,  0.0000)
  10 Li     6.972111   -0.025276   15.165897    ( 0.0000,  0.0000,  0.0000)
  11 Li     5.222231    3.062662   15.997282    ( 0.0000,  0.0000,  0.0000)
  12 Li    -0.034066    2.044338   15.239361    ( 0.0000,  0.0000,  0.0000)
  13 Li    -1.757186    5.014950   15.162292    ( 0.0000,  0.0000,  0.0000)
  14 Li     3.591352    2.074205   15.020027    ( 0.0000,  0.0000,  0.0000)
  15 Li     1.790826    5.043732   16.000127    ( 0.0000,  0.0000,  0.0000)
  16 Li     3.506465    0.000182    3.465092    ( 0.0000,  0.0000,  0.0000)
  17 Li     1.753085    3.037125    3.465092    ( 0.0000,  0.0000,  0.0000)
  18 Li     7.013175    0.000182    3.465092    ( 0.0000,  0.0000,  0.0000)
  19 Li     5.259795    3.037125    3.465092    ( 0.0000,  0.0000,  0.0000)
  20 Li    -0.000262    2.024791    3.465092    ( 0.0000,  0.0000,  0.0000)
  21 Li    -1.753642    5.061734    3.465092    ( 0.0000,  0.0000,  0.0000)
  22 Li     3.506448    2.024791    3.465092    ( 0.0000,  0.0000,  0.0000)
  23 Li     1.753068    5.061734    3.465092    ( 0.0000,  0.0000,  0.0000)
  24 Li     1.753084    1.012487    5.431887    ( 0.0000,  0.0000,  0.0000)
  25 Li    -0.000296    4.049430    5.431887    ( 0.0000,  0.0000,  0.0000)
  26 Li     5.259794    1.012487    5.431887    ( 0.0000,  0.0000,  0.0000)
  27 Li     3.506414    4.049430    5.431887    ( 0.0000,  0.0000,  0.0000)
  28 Li     3.506429    0.000182    7.378027    ( 0.0000,  0.0000,  0.0000)
  29 Li     1.753049    3.037125    7.378027    ( 0.0000,  0.0000,  0.0000)
  30 Li     7.013139    0.000182    7.378027    ( 0.0000,  0.0000,  0.0000)
  31 Li     5.259759    3.037125    7.378027    ( 0.0000,  0.0000,  0.0000)
  32 Li    -0.000297    2.024791    7.378027    ( 0.0000,  0.0000,  0.0000)
  33 Li    -1.753677    5.061734    7.378027    ( 0.0000,  0.0000,  0.0000)
  34 Li     3.506413    2.024791    7.378027    ( 0.0000,  0.0000,  0.0000)
  35 Li     1.753033    5.061734    7.378027    ( 0.0000,  0.0000,  0.0000)
  36 Li     1.752687    1.012580    9.314936    ( 0.0000,  0.0000,  0.0000)
  37 Li    -0.000742    4.049902    9.354065    ( 0.0000,  0.0000,  0.0000)
  38 Li     5.259676    1.012628    9.354066    ( 0.0000,  0.0000,  0.0000)
  39 Li     3.506259    4.050090    9.345668    ( 0.0000,  0.0000,  0.0000)
  40 Li     3.508554   -0.000418   11.293651    ( 0.0000,  0.0000,  0.0000)
  41 Li     1.751979    3.040964   11.268477    ( 0.0000,  0.0000,  0.0000)
  42 Li     7.009606   -0.000008   11.268805    ( 0.0000,  0.0000,  0.0000)
  43 Li     5.259524    3.037698   11.380840    ( 0.0000,  0.0000,  0.0000)
  44 Li    -0.003456    2.027284   11.293348    ( 0.0000,  0.0000,  0.0000)
  45 Li    -1.753475    5.059364   11.269368    ( 0.0000,  0.0000,  0.0000)
  46 Li     3.508876    2.026635   11.268950    ( 0.0000,  0.0000,  0.0000)
  47 Li     1.752130    5.062668   11.379425    ( 0.0000,  0.0000,  0.0000)
  48 N      1.753084    1.012487    3.439048    ( 0.0000,  0.0000,  0.0000)
  49 N     -0.000296    4.049430    3.439048    ( 0.0000,  0.0000,  0.0000)
  50 N      5.259794    1.012487    3.439048    ( 0.0000,  0.0000,  0.0000)
  51 N      3.506414    4.049430    3.439048    ( 0.0000,  0.0000,  0.0000)
  52 N      1.753031    1.012517    7.360963    ( 0.0000,  0.0000,  0.0000)
  53 N     -0.000349    4.049460    7.360963    ( 0.0000,  0.0000,  0.0000)
  54 N      5.259741    1.012517    7.360963    ( 0.0000,  0.0000,  0.0000)
  55 N      3.506361    4.049460    7.360963    ( 0.0000,  0.0000,  0.0000)
  56 N      1.752199    1.012905   11.242354    ( 0.0000,  0.0000,  0.0000)
  57 N     -0.000691    4.050471   11.310466    ( 0.0000,  0.0000,  0.0000)
  58 N      5.259404    1.013403   11.310555    ( 0.0000,  0.0000,  0.0000)
  59 N      3.505931    4.050548   11.293243    ( 0.0000,  0.0000,  0.0000)
  60 N      1.767026    1.037917   15.142368    ( 0.0000,  0.0000,  0.0000)
  61 N     -0.004757    4.043935   15.286172    ( 0.0000,  0.0000,  0.0000)
  62 N      5.255107    1.006865   15.286930    ( 0.0000,  0.0000,  0.0000)
  63 N      3.499449    4.040627   15.230926    ( 0.0000,  0.0000,  0.0000)
  64 Li     2.010110    1.441567   16.955875    ( 0.0000,  0.0000,  0.0000)

Unit cell:
           periodic     x           y           z      points  spacing
  1. axis:    yes    7.013420    0.000000    0.000000    40     0.1518
  2. axis:    yes   -3.506760    6.073886    0.000000    40     0.1518
  3. axis:    yes    0.000000    0.000000   29.936001   160     0.1871

  Lengths:   7.013420   7.013520  29.936001
  Angles:   90.000000  90.000000 120.000000

Effective grid spacing dv^(1/3) = 0.1708

                     log10-error:    total        iterations:
           time      wfs    density  energy       fermi  poisson
iter:   1  10:37:50  -2.22         -234.946511    4             
iter:   2  10:38:30  -3.11  -1.92  -235.146121    5             
iter:   3  10:39:10  -3.99  -1.82  -234.922250    4             
iter:   4  10:39:51  -3.79  -2.13  -234.902215    4             
iter:   5  10:40:32  -4.07  -2.03  -234.862261    2             
iter:   6  10:41:12  -4.08  -2.62  -234.857492    2             
iter:   7  10:41:52  -4.52  -2.47  -234.855471    3             
iter:   8  10:42:32  -5.66  -2.81  -234.854848    3             
iter:   9  10:43:13  -4.94  -2.71  -234.856190    2             
iter:  10  10:43:53  -5.95  -3.22  -234.855476    2             
iter:  11  10:44:33  -5.97  -3.37  -234.855371    2             
iter:  12  10:45:13  -5.76  -3.40  -234.855320    2             
iter:  13  10:45:53  -7.10  -3.56  -234.855341    2             
iter:  14  10:46:34  -6.66  -3.58  -234.855561    2             
iter:  15  10:47:14  -6.32  -3.69  -234.855388    2             
iter:  16  10:47:54  -6.95  -3.65  -234.855569    2             
iter:  17  10:48:34  -6.84  -3.82  -234.855416    2             
iter:  18  10:49:14  -7.95  -3.76  -234.855511    2             
iter:  19  10:49:55  -6.72  -3.84  -234.855617    2             
iter:  20  10:50:35  -6.61  -3.92  -234.855532    2             
iter:  21  10:51:15  -7.58  -4.28  -234.855536    2             

Converged after 21 iterations.

Dipole moment: (-2.027416, 1.122238, -11.347975) |e|*Ang

Energy contributions relative to reference atoms: (reference = -33644.147259)

Kinetic:       +257.007127
Potential:     -190.063481
External:        +0.000000
XC:            -300.475227
Entropy (-ST):   -0.075587
Local:           -1.286161
--------------------------
Free energy:   -234.893330
Extrapolated:  -234.855536

Fermi level: -0.23163

Showing only first 2 kpts
 Kpt  Band  Eigenvalues  Occupancy
  0    62     -0.53495    0.07981
  0    63     -0.03417    0.00151
  0    64      0.01128    0.00062
  0    65      0.20792    0.00001

  1    62     -0.62985    0.15994
  1    63     -0.28266    0.11762
  1    64     -0.13089    0.01882
  1    65      0.38710    0.00000


No gap

Forces in eV/Ang:
  0 Li   -0.00007    0.00005   -0.04951
  1 Li   -0.00007    0.00005   -0.04969
  2 Li   -0.00007    0.00005   -0.04970
  3 Li   -0.00007    0.00005   -0.04958
  4 Li   -0.03643   -0.06188   -0.25250
  5 Li   -0.07516    0.03163   -0.05751
  6 Li    0.06817   -0.04717   -0.05663
  7 Li    0.05999    0.10573   -0.04901
  8 Li    0.16791   -0.05821   -0.01789
  9 Li   -0.03714    0.04736   -0.06052
 10 Li   -0.04745    0.00950    0.02958
 11 Li    0.04536   -0.09379    0.08785
 12 Li   -0.13974    0.11945   -0.01413
 13 Li    0.03435   -0.03786    0.03035
 14 Li    0.06150   -0.00980   -0.05848
 15 Li   -0.10169   -0.00881    0.08444
 16 Li    0.00009   -0.00016   -0.04198
 17 Li   -0.00004   -0.00005   -0.04209
 18 Li   -0.00008   -0.00011   -0.04206
 19 Li    0.00005   -0.00015   -0.04183
 20 Li   -0.00015    0.00013   -0.04198
 21 Li   -0.00002    0.00000   -0.04206
 22 Li    0.00001    0.00007   -0.04209
 23 Li   -0.00013    0.00009   -0.04183
 24 Li   -0.00006   -0.00009   -0.05613
 25 Li   -0.00005    0.00003   -0.04846
 26 Li    0.00004   -0.00004   -0.04847
 27 Li    0.00003    0.00010   -0.05027
 28 Li    0.00595   -0.00345    0.00299
 29 Li   -0.00171    0.00629    0.00069
 30 Li   -0.00621   -0.00163   -0.00021
 31 Li    0.00140   -0.00081    0.01037
 32 Li   -0.00635    0.00383    0.00308
 33 Li    0.00129   -0.00582   -0.00015
 34 Li    0.00587    0.00206    0.00071
 35 Li   -0.00181    0.00115    0.01017
 36 Li    0.00077    0.00094    0.07214
 37 Li    0.00039   -0.00038    0.01694
 38 Li   -0.00114    0.00152    0.01717
 39 Li   -0.00002   -0.00175    0.01198
 40 Li   -0.01533    0.01109    0.02529
 41 Li   -0.00056   -0.01954    0.01605
 42 Li    0.01693    0.01209    0.01774
 43 Li    0.00148   -0.00358    0.01075
 44 Li    0.01719   -0.00779    0.02449
 45 Li    0.00188    0.02067    0.01738
 46 Li   -0.01657   -0.01018    0.01558
 47 Li   -0.00400   -0.00029    0.01056
 48 N    -0.00011    0.00032    0.07925
 49 N    -0.00017    0.00022    0.09247
 50 N    -0.00016    0.00022    0.09259
 51 N    -0.00017    0.00019    0.08220
 52 N    -0.00034   -0.00047   -0.05308
 53 N    -0.00043    0.00009    0.08239
 54 N     0.00005   -0.00030    0.08248
 55 N     0.00004    0.00037    0.05647
 56 N     0.00115    0.00198    0.04542
 57 N     0.00012   -0.00139    0.00032
 58 N    -0.00140   -0.00015    0.00087
 59 N    -0.00122   -0.00230   -0.01534
 60 N    -0.01006   -0.01742    0.05207
 61 N     0.00956    0.01726    0.04959
 62 N     0.00811    0.02060    0.04846
 63 N     0.02123    0.03377    0.04567
 64 Li   -0.03272   -0.05560   -0.08825

System changes: positions 

Initializing position-dependent things.

Density initialized from wave functions
                                         
                                         
                                         
                                         
                                         
                   Li                    
           Li    Li       Li             
              N   Li   N                 
             Li       Li                 
              LiN   Li LiN  Li           
                                         
           Li N Li Li  N Li              
                  Li      Li             
             Li      Li  N               
              LiN   Li Li   Li           
                                         
           Li N Li Li  N Li              
                  Li      Li             
             Li N    Li  N               
              Li    Li Li   Li           
           Li      Li                    
              N Li     N Li              
             Li   Li Li   Li             
                N        N               
              Li    Li Li   Li           
                                         
                Li       Li              
                                         
                                         
                                         
                                         

Positions:
   0 Li     1.753189    1.012426    1.530029    ( 0.0000,  0.0000,  0.0000)
   1 Li    -0.000191    4.049369    1.530029    ( 0.0000,  0.0000,  0.0000)
   2 Li     5.259899    1.012426    1.530029    ( 0.0000,  0.0000,  0.0000)
   3 Li     3.506519    4.049369    1.530029    ( 0.0000,  0.0000,  0.0000)
   4 Li     1.752193    1.014734   13.245990    ( 0.0000,  0.0000,  0.0000)
   5 Li    -0.005036    4.051690   13.319094    ( 0.0000,  0.0000,  0.0000)
   6 Li     5.263838    1.008555   13.319298    ( 0.0000,  0.0000,  0.0000)
   7 Li     3.507151    4.055376   13.274394    ( 0.0000,  0.0000,  0.0000)
   8 Li     3.542456   -0.020347   15.235704    ( 0.0000,  0.0000,  0.0000)
   9 Li     1.752312    3.139385   15.015083    ( 0.0000,  0.0000,  0.0000)
  10 Li     6.970294   -0.024135   15.174423    ( 0.0000,  0.0000,  0.0000)
  11 Li     5.218505    3.061429   16.004684    ( 0.0000,  0.0000,  0.0000)
  12 Li    -0.036173    2.046082   15.239317    ( 0.0000,  0.0000,  0.0000)
  13 Li    -1.755153    5.014000   15.170765    ( 0.0000,  0.0000,  0.0000)
  14 Li     3.593713    2.076581   15.009599    ( 0.0000,  0.0000,  0.0000)
  15 Li     1.791605    5.039932   16.007192    ( 0.0000,  0.0000,  0.0000)
  16 Li     3.506465    0.000182    3.465092    ( 0.0000,  0.0000,  0.0000)
  17 Li     1.753085    3.037125    3.465092    ( 0.0000,  0.0000,  0.0000)
  18 Li     7.013175    0.000182    3.465092    ( 0.0000,  0.0000,  0.0000)
  19 Li     5.259795    3.037125    3.465092    ( 0.0000,  0.0000,  0.0000)
  20 Li    -0.000262    2.024791    3.465092    ( 0.0000,  0.0000,  0.0000)
  21 Li    -1.753642    5.061734    3.465092    ( 0.0000,  0.0000,  0.0000)
  22 Li     3.506448    2.024791    3.465092    ( 0.0000,  0.0000,  0.0000)
  23 Li     1.753068    5.061734    3.465092    ( 0.0000,  0.0000,  0.0000)
  24 Li     1.753084    1.012487    5.431887    ( 0.0000,  0.0000,  0.0000)
  25 Li    -0.000296    4.049430    5.431887    ( 0.0000,  0.0000,  0.0000)
  26 Li     5.259794    1.012487    5.431887    ( 0.0000,  0.0000,  0.0000)
  27 Li     3.506414    4.049430    5.431887    ( 0.0000,  0.0000,  0.0000)
  28 Li     3.506429    0.000182    7.378027    ( 0.0000,  0.0000,  0.0000)
  29 Li     1.753049    3.037125    7.378027    ( 0.0000,  0.0000,  0.0000)
  30 Li     7.013139    0.000182    7.378027    ( 0.0000,  0.0000,  0.0000)
  31 Li     5.259759    3.037125    7.378027    ( 0.0000,  0.0000,  0.0000)
  32 Li    -0.000297    2.024791    7.378027    ( 0.0000,  0.0000,  0.0000)
  33 Li    -1.753677    5.061734    7.378027    ( 0.0000,  0.0000,  0.0000)
  34 Li     3.506413    2.024791    7.378027    ( 0.0000,  0.0000,  0.0000)
  35 Li     1.753033    5.061734    7.378027    ( 0.0000,  0.0000,  0.0000)
  36 Li     1.752637    1.012461    9.315476    ( 0.0000,  0.0000,  0.0000)
  37 Li    -0.000838    4.049942    9.354209    ( 0.0000,  0.0000,  0.0000)
  38 Li     5.259709    1.012671    9.354216    ( 0.0000,  0.0000,  0.0000)
  39 Li     3.506375    4.050163    9.345448    ( 0.0000,  0.0000,  0.0000)
  40 Li     3.508815   -0.000458   11.294722    ( 0.0000,  0.0000,  0.0000)
  41 Li     1.751934    3.041095   11.268862    ( 0.0000,  0.0000,  0.0000)
  42 Li     7.009374    0.000073   11.269106    ( 0.0000,  0.0000,  0.0000)
  43 Li     5.259665    3.037527   11.381258    ( 0.0000,  0.0000,  0.0000)
  44 Li    -0.003624    2.027493   11.294375    ( 0.0000,  0.0000,  0.0000)
  45 Li    -1.753296    5.059221   11.269696    ( 0.0000,  0.0000,  0.0000)
  46 Li     3.508993    2.026660   11.269350    ( 0.0000,  0.0000,  0.0000)
  47 Li     1.751912    5.062702   11.379719    ( 0.0000,  0.0000,  0.0000)
  48 N      1.753084    1.012487    3.439048    ( 0.0000,  0.0000,  0.0000)
  49 N     -0.000296    4.049430    3.439048    ( 0.0000,  0.0000,  0.0000)
  50 N      5.259794    1.012487    3.439048    ( 0.0000,  0.0000,  0.0000)
  51 N      3.506414    4.049430    3.439048    ( 0.0000,  0.0000,  0.0000)
  52 N      1.753031    1.012517    7.360963    ( 0.0000,  0.0000,  0.0000)
  53 N     -0.000349    4.049460    7.360963    ( 0.0000,  0.0000,  0.0000)
  54 N      5.259741    1.012517    7.360963    ( 0.0000,  0.0000,  0.0000)
  55 N      3.506361    4.049460    7.360963    ( 0.0000,  0.0000,  0.0000)
  56 N      1.752160    1.012826   11.246150    ( 0.0000,  0.0000,  0.0000)
  57 N     -0.000739    4.050499   11.311631    ( 0.0000,  0.0000,  0.0000)
  58 N      5.259429    1.013449   11.311749    ( 0.0000,  0.0000,  0.0000)
  59 N      3.505969    4.050548   11.293256    ( 0.0000,  0.0000,  0.0000)
  60 N      1.763974    1.032625   15.120588    ( 0.0000,  0.0000,  0.0000)
  61 N     -0.008708    4.047666   15.284362    ( 0.0000,  0.0000,  0.0000)
  62 N      5.260437    1.005535   15.285179    ( 0.0000,  0.0000,  0.0000)
  63 N      3.502668    4.046315   15.227115    ( 0.0000,  0.0000,  0.0000)
  64 Li     2.012166    1.445018   16.960993    ( 0.0000,  0.0000,  0.0000)

Unit cell:
           periodic     x           y           z      points  spacing
  1. axis:    yes    7.013420    0.000000    0.000000    40     0.1518
  2. axis:    yes   -3.506760    6.073886    0.000000    40     0.1518
  3. axis:    yes    0.000000    0.000000   29.936001   160     0.1871

  Lengths:   7.013420   7.013520  29.936001
  Angles:   90.000000  90.000000 120.000000

Effective grid spacing dv^(1/3) = 0.1708

                     log10-error:    total        iterations:
           time      wfs    density  energy       fermi  poisson
iter:   1  10:52:29  -3.18         -234.855260    3             
iter:   2  10:53:08  -4.40  -2.60  -234.864172    3             
iter:   3  10:53:48  -5.23  -2.50  -234.855512    2             
iter:   4  10:54:29  -4.30  -2.73  -234.848439    2             
iter:   5  10:55:09  -4.88  -2.89  -234.849337    3             
iter:   6  10:55:49  -5.38  -3.17  -234.848296    3             
iter:   7  10:56:29  -5.78  -3.11  -234.850023    2             
iter:   8  10:57:09  -5.99  -3.32  -234.849618    2             
iter:   9  10:57:50  -6.25  -3.52  -234.849328    2             
iter:  10  10:58:30  -6.37  -3.85  -234.849262    2             
iter:  11  10:59:10  -7.11  -4.00  -234.849263    2             
iter:  12  10:59:50  -6.99  -4.11  -234.849364    2             
iter:  13  11:00:31  -7.64  -4.10  -234.849275    2             

Converged after 13 iterations.

Dipole moment: (-1.921629, 1.094487, -11.340122) |e|*Ang

Energy contributions relative to reference atoms: (reference = -33644.147259)

Kinetic:       +256.801413
Potential:     -189.924818
External:        +0.000000
XC:            -300.399820
Entropy (-ST):   -0.075604
Local:           -1.288248
--------------------------
Free energy:   -234.887078
Extrapolated:  -234.849275

Fermi level: -0.22695

Showing only first 2 kpts
 Kpt  Band  Eigenvalues  Occupancy
  0    62     -0.51931    0.07977
  0    63     -0.03072    0.00155
  0    64      0.01567    0.00062
  0    65      0.21569    0.00001

  1    62     -0.63131    0.15995
  1    63     -0.27889    0.11818
  1    64     -0.12633    0.01887
  1    65      0.39293    0.00000


No gap

Forces in eV/Ang:
  0 Li   -0.00007    0.00005   -0.04880
  1 Li   -0.00007    0.00005   -0.04899
  2 Li   -0.00007    0.00005   -0.04899
  3 Li   -0.00007    0.00005   -0.04888
  4 Li   -0.04519   -0.07630   -0.44136
  5 Li   -0.08276    0.03543   -0.06122
  6 Li    0.07578   -0.05211   -0.06060
  7 Li    0.06820    0.12012   -0.04298
  8 Li    0.16623   -0.03760   -0.03571
  9 Li   -0.05095    0.04292   -0.05437
 10 Li   -0.01662    0.00312   -0.00943
 11 Li    0.05060   -0.09540    0.07223
 12 Li   -0.11989    0.12720   -0.03292
 13 Li    0.01199   -0.01571   -0.00833
 14 Li    0.06480   -0.02225   -0.05137
 15 Li   -0.10657   -0.00456    0.06961
 16 Li    0.00008   -0.00016   -0.04156
 17 Li   -0.00003   -0.00005   -0.04166
 18 Li   -0.00007   -0.00012   -0.04163
 19 Li    0.00005   -0.00014   -0.04140
 20 Li   -0.00015    0.00012   -0.04156
 21 Li   -0.00003    0.00000   -0.04163
 22 Li    0.00000    0.00007   -0.04166
 23 Li   -0.00012    0.00009   -0.04140
 24 Li   -0.00004   -0.00005   -0.05552
 25 Li   -0.00004    0.00002   -0.04805
 26 Li    0.00002   -0.00003   -0.04805
 27 Li    0.00001    0.00005   -0.04991
 28 Li    0.00594   -0.00333    0.00374
 29 Li   -0.00165    0.00619    0.00156
 30 Li   -0.00620   -0.00158    0.00040
 31 Li    0.00136   -0.00087    0.01090
 32 Li   -0.00622    0.00388    0.00383
 33 Li    0.00133   -0.00577    0.00039
 34 Li    0.00573    0.00206    0.00151
 35 Li   -0.00184    0.00107    0.01084
 36 Li    0.00093    0.00126    0.08561
 37 Li    0.00067   -0.00050    0.02083
 38 Li   -0.00133    0.00156    0.02111
 39 Li   -0.00029   -0.00204    0.01495
 40 Li   -0.02184    0.01483    0.03152
 41 Li   -0.00012   -0.02527    0.02189
 42 Li    0.02312    0.01414    0.02179
 43 Li   -0.00041   -0.00296    0.00957
 44 Li    0.02371   -0.01161    0.03067
 45 Li    0.00052    0.02696    0.02131
 46 Li   -0.02167   -0.01259    0.02135
 47 Li   -0.00265   -0.00152    0.00963
 48 N    -0.00014    0.00029    0.07604
 49 N    -0.00015    0.00021    0.08872
 50 N    -0.00018    0.00022    0.08881
 51 N    -0.00018    0.00022    0.07823
 52 N    -0.00037   -0.00054   -0.05330
 53 N    -0.00049    0.00014    0.08066
 54 N     0.00009   -0.00026    0.08081
 55 N     0.00013    0.00044    0.05160
 56 N     0.00287    0.00516    0.02928
 57 N     0.00099   -0.00227   -0.00308
 58 N    -0.00251   -0.00074   -0.00258
 59 N    -0.00221   -0.00309   -0.01771
 60 N     0.05404    0.09200    0.47211
 61 N     0.07049   -0.04088    0.09603
 62 N    -0.07481    0.04229    0.09430
 63 N    -0.02385   -0.04623    0.08231
 64 Li   -0.04436   -0.07506   -0.24436

System changes: positions 

Initializing position-dependent things.

Density initialized from wave functions
                                         
                                         
                                         
                                         
                                         
                   Li                    
           Li    Li       Li             
              N   Li   N                 
             Li       Li                 
              LiN   Li LiN  Li           
                                         
           Li N Li Li  N Li              
                  Li      Li             
             Li      Li  N               
              LiN   Li Li   Li           
                                         
           Li N Li Li  N Li              
                  Li      Li             
             Li N    Li  N               
              Li    Li Li   Li           
           Li      Li                    
              N Li     N Li              
             Li   Li Li   Li             
                N        N               
              Li    Li Li   Li           
                                         
                Li       Li              
                                         
                                         
                                         
                                         

Positions:
   0 Li     1.753189    1.012426    1.530029    ( 0.0000,  0.0000,  0.0000)
   1 Li    -0.000191    4.049369    1.530029    ( 0.0000,  0.0000,  0.0000)
   2 Li     5.259899    1.012426    1.530029    ( 0.0000,  0.0000,  0.0000)
   3 Li     3.506519    4.049369    1.530029    ( 0.0000,  0.0000,  0.0000)
   4 Li     1.750406    1.011685   13.246807    ( 0.0000,  0.0000,  0.0000)
   5 Li    -0.009855    4.053505   13.317566    ( 0.0000,  0.0000,  0.0000)
   6 Li     5.267984    1.005530   13.317853    ( 0.0000,  0.0000,  0.0000)
   7 Li     3.510640    4.061484   13.270733    ( 0.0000,  0.0000,  0.0000)
   8 Li     3.549078   -0.022423   15.234186    ( 0.0000,  0.0000,  0.0000)
   9 Li     1.752412    3.143942   15.002715    ( 0.0000,  0.0000,  0.0000)
  10 Li     6.967697   -0.022738   15.183737    ( 0.0000,  0.0000,  0.0000)
  11 Li     5.215620    3.057790   16.014817    ( 0.0000,  0.0000,  0.0000)
  12 Li    -0.041473    2.050920   15.238307    ( 0.0000,  0.0000,  0.0000)
  13 Li    -1.752465    5.012445   15.180050    ( 0.0000,  0.0000,  0.0000)
  14 Li     3.597719    2.078807   14.997104    ( 0.0000,  0.0000,  0.0000)
  15 Li     1.789917    5.035641   16.016885    ( 0.0000,  0.0000,  0.0000)
  16 Li     3.506465    0.000182    3.465092    ( 0.0000,  0.0000,  0.0000)
  17 Li     1.753085    3.037125    3.465092    ( 0.0000,  0.0000,  0.0000)
  18 Li     7.013175    0.000182    3.465092    ( 0.0000,  0.0000,  0.0000)
  19 Li     5.259795    3.037125    3.465092    ( 0.0000,  0.0000,  0.0000)
  20 Li    -0.000262    2.024791    3.465092    ( 0.0000,  0.0000,  0.0000)
  21 Li    -1.753642    5.061734    3.465092    ( 0.0000,  0.0000,  0.0000)
  22 Li     3.506448    2.024791    3.465092    ( 0.0000,  0.0000,  0.0000)
  23 Li     1.753068    5.061734    3.465092    ( 0.0000,  0.0000,  0.0000)
  24 Li     1.753084    1.012487    5.431887    ( 0.0000,  0.0000,  0.0000)
  25 Li    -0.000296    4.049430    5.431887    ( 0.0000,  0.0000,  0.0000)
  26 Li     5.259794    1.012487    5.431887    ( 0.0000,  0.0000,  0.0000)
  27 Li     3.506414    4.049430    5.431887    ( 0.0000,  0.0000,  0.0000)
  28 Li     3.506429    0.000182    7.378027    ( 0.0000,  0.0000,  0.0000)
  29 Li     1.753049    3.037125    7.378027    ( 0.0000,  0.0000,  0.0000)
  30 Li     7.013139    0.000182    7.378027    ( 0.0000,  0.0000,  0.0000)
  31 Li     5.259759    3.037125    7.378027    ( 0.0000,  0.0000,  0.0000)
  32 Li    -0.000297    2.024791    7.378027    ( 0.0000,  0.0000,  0.0000)
  33 Li    -1.753677    5.061734    7.378027    ( 0.0000,  0.0000,  0.0000)
  34 Li     3.506413    2.024791    7.378027    ( 0.0000,  0.0000,  0.0000)
  35 Li     1.753033    5.061734    7.378027    ( 0.0000,  0.0000,  0.0000)
  36 Li     1.752604    1.012361    9.317907    ( 0.0000,  0.0000,  0.0000)
  37 Li    -0.000928    4.049975    9.354805    ( 0.0000,  0.0000,  0.0000)
  38 Li     5.259714    1.012756    9.354824    ( 0.0000,  0.0000,  0.0000)
  39 Li     3.506496    4.050194    9.345523    ( 0.0000,  0.0000,  0.0000)
  40 Li     3.508672   -0.000201   11.296576    ( 0.0000,  0.0000,  0.0000)
  41 Li     1.751883    3.040731   11.269781    ( 0.0000,  0.0000,  0.0000)
  42 Li     7.009582    0.000453   11.269921    ( 0.0000,  0.0000,  0.0000)
  43 Li     5.259816    3.037265   11.381990    ( 0.0000,  0.0000,  0.0000)
  44 Li    -0.003332    2.027499   11.296160    ( 0.0000,  0.0000,  0.0000)
  45 Li    -1.753081    5.059608   11.270527    ( 0.0000,  0.0000,  0.0000)
  46 Li     3.508685    2.026436   11.270271    ( 0.0000,  0.0000,  0.0000)
  47 Li     1.751604    5.062707   11.380316    ( 0.0000,  0.0000,  0.0000)
[...]
  1. axis:    yes    7.013420    0.000000    0.000000    40     0.1518
  2. axis:    yes   -3.506760    6.073886    0.000000    40     0.1518
  3. axis:    yes    0.000000    0.000000   29.936001   160     0.1871

  Lengths:   7.013420   7.013520  29.936001
  Angles:   90.000000  90.000000 120.000000

Effective grid spacing dv^(1/3) = 0.1708

                     log10-error:    total        iterations:
           time      wfs    density  energy       fermi  poisson
iter:   1  16:54:44  -4.47         -234.908740    2             
iter:   2  16:55:24  -5.63  -3.35  -234.909724    2             
iter:   3  16:56:04  -6.40  -3.34  -234.908529    2             
iter:   4  16:56:44  -5.94  -3.36  -234.908734    2             
iter:   5  16:57:24  -7.05  -3.78  -234.908902    2             
iter:   6  16:58:06  -6.92  -3.95  -234.908996    2             
iter:   7  16:58:47  -7.05  -4.07  -234.908968    2             

Converged after 7 iterations.

Dipole moment: (-1.552300, 1.022685, -11.336815) |e|*Ang

Energy contributions relative to reference atoms: (reference = -33644.147259)

Kinetic:       +255.405180
Potential:     -189.082067
External:        +0.000000
XC:            -299.908490
Entropy (-ST):   -0.076083
Local:           -1.285550
--------------------------
Free energy:   -234.947010
Extrapolated:  -234.908968

Fermi level: -0.20110

Showing only first 2 kpts
 Kpt  Band  Eigenvalues  Occupancy
  0    62     -0.56520    0.07995
  0    63      0.01704    0.00101
  0    64      0.02109    0.00093
  0    65      0.21960    0.00002

  1    62     -0.64255    0.15998
  1    63     -0.26359    0.12436
  1    64     -0.08770    0.01501
  1    65      0.40903    0.00000


No gap

Forces in eV/Ang:
  0 Li   -0.00007    0.00006   -0.05415
  1 Li   -0.00007    0.00005   -0.05437
  2 Li   -0.00008    0.00005   -0.05437
  3 Li   -0.00008    0.00004   -0.05441
  4 Li   -0.00478   -0.00731    0.05202
  5 Li   -0.00925    0.00065    0.00953
  6 Li    0.00576   -0.00792    0.00925
  7 Li    0.00616    0.01225    0.00165
  8 Li    0.01003    0.01256   -0.00007
  9 Li   -0.02087   -0.00160   -0.00598
 10 Li    0.00651   -0.01550   -0.00156
 11 Li   -0.00625    0.00011    0.00782
 12 Li    0.00599    0.01507    0.00020
 13 Li   -0.01767   -0.00239   -0.00206
 14 Li    0.00867   -0.01766   -0.00673
 15 Li    0.00226   -0.00535    0.00802
 16 Li    0.00005   -0.00012   -0.04480
 17 Li    0.00002   -0.00008   -0.04458
 18 Li   -0.00003   -0.00013   -0.04500
 19 Li   -0.00001   -0.00014   -0.04459
 20 Li   -0.00010    0.00011   -0.04482
 21 Li   -0.00006    0.00003   -0.04499
 22 Li   -0.00005    0.00010   -0.04458
 23 Li   -0.00009    0.00005   -0.04459
 24 Li    0.00029    0.00048   -0.06265
 25 Li    0.00026   -0.00012   -0.05483
 26 Li   -0.00028    0.00016   -0.05482
 27 Li   -0.00026   -0.00044   -0.05398
 28 Li    0.00434   -0.00574   -0.00137
 29 Li   -0.00121    0.00770   -0.01047
 30 Li   -0.00506   -0.00522    0.01167
 31 Li    0.00066    0.00291    0.01089
 32 Li   -0.00762    0.00130   -0.00070
 33 Li   -0.00259   -0.00663    0.01102
 34 Li    0.00678    0.00335   -0.01109
 35 Li    0.00193    0.00232    0.01045
 36 Li    0.00453    0.00755    0.02980
 37 Li    0.00407   -0.00388    0.00868
 38 Li   -0.00579    0.00162    0.00858
 39 Li   -0.00482   -0.00838    0.01238
 40 Li    0.00543   -0.00202    0.01270
 41 Li    0.00021    0.00556    0.01020
 42 Li   -0.00657   -0.00358    0.00384
 43 Li   -0.00247   -0.00194    0.00066
 44 Li   -0.00465    0.00380    0.01030
 45 Li    0.00013   -0.00751    0.00219
 46 Li    0.00473    0.00302    0.00814
 47 Li   -0.00064   -0.00294   -0.00126
 48 N    -0.00038   -0.00011    0.08956
 49 N    -0.00037    0.00027    0.10305
 50 N     0.00000    0.00007    0.10313
 51 N     0.00003    0.00053    0.10483
 52 N     0.00419    0.00693   -0.04095
 53 N     0.00487   -0.00230    0.10842
 54 N    -0.00528    0.00299    0.10884
 55 N    -0.00525   -0.00896    0.12687
 56 N     0.00236    0.00406   -0.07352
 57 N    -0.00113   -0.00117   -0.01310
 58 N    -0.00049   -0.00145   -0.01324
 59 N    -0.00042   -0.00055   -0.01864
 60 N    -0.01378   -0.02278   -0.03961
 61 N     0.01637   -0.02091    0.00355
 62 N    -0.02534    0.00258    0.00362
 63 N     0.00938    0.01516    0.00628
 64 Li    0.02768    0.04533    0.00563

System changes: positions 

Initializing position-dependent things.

Density initialized from wave functions
                                         
                                         
                                         
                                         
                                         
                   Li                    
          Li  N  Li    N  Li             
                  Li                     
             Li       Li N               
              LiN   Li Li   Li           
                                         
           Li N Li Li  N Li              
                  Li      Li             
             Li      Li  N               
              LiN   Li Li   Li           
                                         
           Li N Li Li  N Li              
                  Li      Li             
             Li N    Li  N               
              Li    Li Li   Li           
           Li      Li                    
              N Li     N Li              
             Li   Li Li   Li             
                N        N               
              Li    Li Li   Li           
                                         
                Li       Li              
                                         
                                         
                                         
                                         

Positions:
   0 Li     1.753189    1.012426    1.530029    ( 0.0000,  0.0000,  0.0000)
   1 Li    -0.000191    4.049369    1.530029    ( 0.0000,  0.0000,  0.0000)
   2 Li     5.259899    1.012426    1.530029    ( 0.0000,  0.0000,  0.0000)
   3 Li     3.506519    4.049369    1.530029    ( 0.0000,  0.0000,  0.0000)
   4 Li     1.721566    0.963927   13.187997    ( 0.0000,  0.0000,  0.0000)
   5 Li    -0.056086    4.062214   13.314412    ( 0.0000,  0.0000,  0.0000)
   6 Li     5.300333    0.971962   13.314815    ( 0.0000,  0.0000,  0.0000)
   7 Li     3.543433    4.119869   13.327572    ( 0.0000,  0.0000,  0.0000)
   8 Li     3.576829   -0.037819   15.127473    ( 0.0000,  0.0000,  0.0000)
   9 Li     1.751128    3.145391   15.026521    ( 0.0000,  0.0000,  0.0000)
  10 Li     6.951267   -0.031116   15.247318    ( 0.0000,  0.0000,  0.0000)
  11 Li     5.239257    2.999587   16.104121    ( 0.0000,  0.0000,  0.0000)
  12 Li    -0.070532    2.068267   15.134327    ( 0.0000,  0.0000,  0.0000)
  13 Li    -1.752693    4.993567   15.243047    ( 0.0000,  0.0000,  0.0000)
  14 Li     3.599435    2.079783   15.021027    ( 0.0000,  0.0000,  0.0000)
  15 Li     1.725625    5.028493   16.103638    ( 0.0000,  0.0000,  0.0000)
  16 Li     3.506465    0.000182    3.465092    ( 0.0000,  0.0000,  0.0000)
  17 Li     1.753085    3.037125    3.465092    ( 0.0000,  0.0000,  0.0000)
  18 Li     7.013175    0.000182    3.465092    ( 0.0000,  0.0000,  0.0000)
  19 Li     5.259795    3.037125    3.465092    ( 0.0000,  0.0000,  0.0000)
  20 Li    -0.000262    2.024791    3.465092    ( 0.0000,  0.0000,  0.0000)
  21 Li    -1.753642    5.061734    3.465092    ( 0.0000,  0.0000,  0.0000)
  22 Li     3.506448    2.024791    3.465092    ( 0.0000,  0.0000,  0.0000)
  23 Li     1.753068    5.061734    3.465092    ( 0.0000,  0.0000,  0.0000)
  24 Li     1.753084    1.012487    5.431887    ( 0.0000,  0.0000,  0.0000)
  25 Li    -0.000296    4.049430    5.431887    ( 0.0000,  0.0000,  0.0000)
  26 Li     5.259794    1.012487    5.431887    ( 0.0000,  0.0000,  0.0000)
  27 Li     3.506414    4.049430    5.431887    ( 0.0000,  0.0000,  0.0000)
  28 Li     3.506429    0.000182    7.378027    ( 0.0000,  0.0000,  0.0000)
  29 Li     1.753049    3.037125    7.378027    ( 0.0000,  0.0000,  0.0000)
  30 Li     7.013139    0.000182    7.378027    ( 0.0000,  0.0000,  0.0000)
  31 Li     5.259759    3.037125    7.378027    ( 0.0000,  0.0000,  0.0000)
  32 Li    -0.000297    2.024791    7.378027    ( 0.0000,  0.0000,  0.0000)
  33 Li    -1.753677    5.061734    7.378027    ( 0.0000,  0.0000,  0.0000)
  34 Li     3.506413    2.024791    7.378027    ( 0.0000,  0.0000,  0.0000)
  35 Li     1.753033    5.061734    7.378027    ( 0.0000,  0.0000,  0.0000)
  36 Li     1.757821    1.021083    9.316979    ( 0.0000,  0.0000,  0.0000)
  37 Li     0.005079    4.046299    9.358107    ( 0.0000,  0.0000,  0.0000)
  38 Li     5.252782    1.015737    9.358210    ( 0.0000,  0.0000,  0.0000)
  39 Li     3.499357    4.038115    9.363693    ( 0.0000,  0.0000,  0.0000)
  40 Li     3.507079   -0.001381   11.274376    ( 0.0000,  0.0000,  0.0000)
  41 Li     1.751324    3.037093   11.318402    ( 0.0000,  0.0000,  0.0000)
  42 Li     7.007973   -0.002300   11.257428    ( 0.0000,  0.0000,  0.0000)
  43 Li     5.256658    3.033271   11.416312    ( 0.0000,  0.0000,  0.0000)
  44 Li    -0.004178    2.025949   11.268579    ( 0.0000,  0.0000,  0.0000)
  45 Li    -1.755060    5.056772   11.254796    ( 0.0000,  0.0000,  0.0000)
  46 Li     3.505596    2.024533   11.315233    ( 0.0000,  0.0000,  0.0000)
  47 Li     1.749251    5.058257   11.411615    ( 0.0000,  0.0000,  0.0000)
  48 N      1.753084    1.012487    3.439048    ( 0.0000,  0.0000,  0.0000)
  49 N     -0.000296    4.049430    3.439048    ( 0.0000,  0.0000,  0.0000)
  50 N      5.259794    1.012487    3.439048    ( 0.0000,  0.0000,  0.0000)
  51 N      3.506414    4.049430    3.439048    ( 0.0000,  0.0000,  0.0000)
  52 N      1.753031    1.012517    7.360963    ( 0.0000,  0.0000,  0.0000)
  53 N     -0.000349    4.049460    7.360963    ( 0.0000,  0.0000,  0.0000)
  54 N      5.259741    1.012517    7.360963    ( 0.0000,  0.0000,  0.0000)
  55 N      3.506361    4.049460    7.360963    ( 0.0000,  0.0000,  0.0000)
  56 N      1.749717    1.009110   11.232289    ( 0.0000,  0.0000,  0.0000)
  57 N     -0.005562    4.048554   11.316109    ( 0.0000,  0.0000,  0.0000)
  58 N      5.259874    1.008655   11.316366    ( 0.0000,  0.0000,  0.0000)
  59 N      3.506277    4.051691   11.328048    ( 0.0000,  0.0000,  0.0000)
  60 N      1.756420    1.021403   15.097363    ( 0.0000,  0.0000,  0.0000)
  61 N     -0.005482    4.043092   15.296700    ( 0.0000,  0.0000,  0.0000)
  62 N      5.253054    1.006892   15.297484    ( 0.0000,  0.0000,  0.0000)
  63 N      3.498396    4.039799   15.315381    ( 0.0000,  0.0000,  0.0000)
  64 Li     1.940456    1.317182   16.913981    ( 0.0000,  0.0000,  0.0000)

Unit cell:
           periodic     x           y           z      points  spacing
  1. axis:    yes    7.013420    0.000000    0.000000    40     0.1518
  2. axis:    yes   -3.506760    6.073886    0.000000    40     0.1518
  3. axis:    yes    0.000000    0.000000   29.936001   160     0.1871

  Lengths:   7.013420   7.013520  29.936001
  Angles:   90.000000  90.000000 120.000000

Effective grid spacing dv^(1/3) = 0.1708

                     log10-error:    total        iterations:
           time      wfs    density  energy       fermi  poisson
iter:   1  17:01:33  -4.40         -234.910428    3             
iter:   2  17:02:13  -5.68  -3.09  -234.909918    2             
iter:   3  17:02:53  -6.25  -3.13  -234.910387    2             
iter:   4  17:03:34  -5.52  -3.24  -234.909069    3             
iter:   5  17:04:15  -6.61  -3.39  -234.909650    2             
iter:   6  17:04:55  -6.05  -3.77  -234.909679    2             
iter:   7  17:05:35  -7.35  -3.82  -234.909676    2             
iter:   8  17:06:15  -6.73  -3.85  -234.909647    2             
iter:   9  17:06:55  -7.75  -4.35  -234.909608    2             

Converged after 9 iterations.

Dipole moment: (-1.547147, 1.022918, -11.336877) |e|*Ang

Energy contributions relative to reference atoms: (reference = -33644.147259)

Kinetic:       +255.384248
Potential:     -189.066213
External:        +0.000000
XC:            -299.905540
Entropy (-ST):   -0.076135
Local:           -1.284035
--------------------------
Free energy:   -234.947676
Extrapolated:  -234.909608

Fermi level: -0.20245

Showing only first 2 kpts
 Kpt  Band  Eigenvalues  Occupancy
  0    62     -0.56391    0.07994
  0    63      0.01526    0.00102
  0    64      0.01979    0.00093
  0    65      0.22228    0.00002

  1    62     -0.64391    0.15998
  1    63     -0.26488    0.12433
  1    64     -0.08922    0.01506
  1    65      0.40910    0.00000


No gap

Forces in eV/Ang:
  0 Li   -0.00007    0.00006   -0.05278
  1 Li   -0.00007    0.00005   -0.05302
  2 Li   -0.00008    0.00005   -0.05302
  3 Li   -0.00008    0.00004   -0.05305
  4 Li   -0.00416   -0.00628    0.01645
  5 Li   -0.00789    0.00076    0.00370
  6 Li    0.00509   -0.00664    0.00352
  7 Li    0.00422    0.00878   -0.00166
  8 Li    0.00338   -0.00364    0.00273
  9 Li   -0.00458   -0.00286   -0.00808
 10 Li   -0.00623   -0.00311    0.00336
 11 Li   -0.00407   -0.00103    0.00779
 12 Li   -0.00495    0.00131    0.00313
 13 Li   -0.00001   -0.00710    0.00275
 14 Li   -0.00040   -0.00474   -0.00895
 15 Li    0.00043   -0.00407    0.00797
 16 Li    0.00002   -0.00010   -0.04402
 17 Li    0.00001   -0.00012   -0.04378
 18 Li   -0.00001   -0.00010   -0.04424
 19 Li   -0.00000   -0.00015   -0.04385
 20 Li   -0.00007    0.00010   -0.04403
 21 Li   -0.00005    0.00007   -0.04424
 22 Li   -0.00008    0.00007   -0.04378
 23 Li   -0.00010    0.00005   -0.04385
 24 Li    0.00031    0.00050   -0.06117
 25 Li    0.00029   -0.00012   -0.05379
 26 Li   -0.00030    0.00018   -0.05378
 27 Li   -0.00027   -0.00047   -0.05283
 28 Li    0.00366   -0.00563    0.00079
 29 Li   -0.00136    0.00713   -0.00918
 30 Li   -0.00437   -0.00487    0.01447
 31 Li    0.00079    0.00303    0.01250
 32 Li   -0.00718    0.00077    0.00149
 33 Li   -0.00263   -0.00586    0.01381
 34 Li    0.00636    0.00294   -0.00981
 35 Li    0.00197    0.00249    0.01207
 36 Li    0.00430    0.00715   -0.00070
 37 Li    0.00395   -0.00354    0.00151
 38 Li   -0.00541    0.00166    0.00144
 39 Li   -0.00458   -0.00797    0.00230
 40 Li    0.00278   -0.00095    0.00522
 41 Li    0.00008    0.00271    0.00325
 42 Li   -0.00361   -0.00211   -0.00174
 43 Li   -0.00201   -0.00179   -0.00219
 44 Li   -0.00241    0.00210    0.00286
 45 Li   -0.00004   -0.00424   -0.00339
 46 Li    0.00230    0.00150    0.00115
 47 Li   -0.00074   -0.00253   -0.00422
 48 N    -0.00040   -0.00015    0.08843
 49 N    -0.00041    0.00030    0.10204
 50 N     0.00004    0.00006    0.10208
 51 N     0.00005    0.00056    0.10366
 52 N     0.00454    0.00751   -0.03922
 53 N     0.00523   -0.00253    0.10944
 54 N    -0.00567    0.00318    0.10986
 55 N    -0.00557   -0.00952    0.12750
 56 N     0.00037    0.00070   -0.00564
 57 N    -0.00148   -0.00030    0.00155
 58 N     0.00044   -0.00124    0.00142
 59 N     0.00041    0.00084   -0.00062
 60 N    -0.00895   -0.01484   -0.01867
 61 N    -0.00531    0.00291    0.00368
 62 N     0.00566   -0.00360    0.00369
 63 N     0.00563    0.00944   -0.00142
 64 Li    0.02697    0.04416    0.00141

Timing:                                      incl.     excl.
-------------------------------------------------------------------
Density initialized from wave functions:   250.901   250.900   0.9% |
 Symmetrize density:                         0.001     0.001   0.0% |
Forces:                                    728.375   728.375   2.6% ||
Hamiltonian:                               155.569     0.528   0.0% |
 Atomic:                                    22.268    12.247   0.0% |
  XC Correction:                            10.021    10.021   0.0% |
 Calculate atomic Hamiltonians:             67.752    67.752   0.2% |
 Communicate:                                1.501     1.501   0.0% |
 Initialize Hamiltonian:                     0.001     0.001   0.0% |
 Poisson:                                    0.126     0.126   0.0% |
 XC 3D grid:                                63.394    63.394   0.2% |
LCAO initialization:                        15.998     0.050   0.0% |
 LCAO eigensolver:                           3.760     0.000   0.0% |
  Calculate projections:                     0.069     0.069   0.0% |
  DenseAtomicCorrection:                     0.019     0.019   0.0% |
  Distribute overlap matrix:                 0.001     0.001   0.0% |
  Orbital Layouts:                           0.239     0.239   0.0% |
  Potential matrix:                          3.428     3.428   0.0% |
  Sum over cells:                            0.004     0.004   0.0% |
 LCAO to grid:                              10.652    10.652   0.0% |
 Set positions (LCAO WFS):                   1.536     0.336   0.0% |
  Basic WFS set positions:                   0.002     0.002   0.0% |
  Basis functions set positions:             0.000     0.000   0.0% |
  P tci:                                     0.585     0.585   0.0% |
  ST tci:                                    0.266     0.266   0.0% |
  mktci:                                     0.347     0.347   0.0% |
PWDescriptor:                                1.073     1.073   0.0% |
Redistribute:                                0.299     0.299   0.0% |
SCF-cycle:                               20698.107  8355.890  30.0% |-----------|
 Davidson:                                8852.113  3343.852  12.0% |----|
  Apply H:                                 824.973   821.443   2.9% ||
   HMM T:                                    3.530     3.530   0.0% |
  Subspace diag:                          1316.472     0.106   0.0% |
   calc_h_matrix:                          915.327   146.569   0.5% |
    Apply H:                               768.758   765.305   2.7% ||
     HMM T:                                  3.453     3.453   0.0% |
   diagonalize:                             50.621    50.621   0.2% |
   rotate_psi:                             350.417   350.417   1.3% ||
  calc. matrices:                         2552.258  1014.638   3.6% ||
   Apply H:                               1537.620  1530.800   5.5% |-|
    HMM T:                                   6.820     6.820   0.0% |
  diagonalize:                             133.522   133.522   0.5% |
  rotate_psi:                              681.036   681.036   2.4% ||
 Density:                                 1656.979     0.010   0.0% |
  Atomic density matrices:                   2.833     2.833   0.0% |
  Mix:                                     954.474   954.474   3.4% ||
  Multipole moments:                         0.386     0.386   0.0% |
  Pseudo density:                          699.276   699.266   2.5% ||
   Symmetrize density:                       0.011     0.011   0.0% |
 Hamiltonian:                             1595.109     5.439   0.0% |
  Atomic:                                  237.253   145.244   0.5% |
   XC Correction:                           92.009    92.009   0.3% |
  Calculate atomic Hamiltonians:           679.934   679.934   2.4% ||
  Communicate:                              17.397    17.397   0.1% |
  Poisson:                                   1.267     1.267   0.0% |
  XC 3D grid:                              653.821   653.821   2.3% ||
 Orthonormalize:                           238.016     0.012   0.0% |
  calc_s_matrix:                             6.797     6.797   0.0% |
  inverse-cholesky:                        145.196   145.196   0.5% |
  projections:                              74.594    74.594   0.3% |
  rotate_psi_s:                             11.418    11.418   0.0% |
Set symmetry:                                0.001     0.001   0.0% |
Other:                                    6005.283  6005.283  21.6% |--------|
-------------------------------------------------------------------
Total:                                             27855.607 100.0%

Date: Tue Sep  7 17:07:25 2021
