
  ___ ___ ___ _ _ _  
 |   |   |_  | | | | 
 | | | | | . | | | | 
 |__ |  _|___|_____|  20.1.0
 |___|_|             

User:   jngwng01@n944032
Date:   Tue Sep  7 09:23:09 2021
Arch:   x86_64
Pid:    24814
Python: 3.8.5
gpaw:   /uls/7/gpaw-20.1.0/lib/python3.8/site-packages/gpaw-20.1.0-py3.8-linux-x86_64.egg/gpaw
_gpaw:  /uls/7/gpaw-20.1.0/lib/python3.8/site-packages/gpaw-20.1.0-py3.8-linux-x86_64.egg/
        _gpaw.cpython-38-x86_64-linux-gnu.so
ase:    /uls/7/gpaw-20.1.0/lib/python3.8/site-packages/ase-3.20.1-py3.8.egg/ase (version 3.20.1)
numpy:  /uls/7/gpaw-20.1.0/lib/python3.8/site-packages/numpy (version 1.19.2)
scipy:  /uls/7/gpaw-20.1.0/lib/python3.8/site-packages/scipy-1.5.2-py3.8-linux-x86_64.egg/scipy (version 1.5.2)
libxc:  4.3.4
units:  Angstrom and eV
cores: 16
OMP_NUM_THREADS: 1

Input parameters:
  convergence: {density: 0.0001,
                eigenstates: 1e-07}
  kpts: [5 5 1]
  mode: {ecut: 500.0,
         gammacentered: False,
         name: pw}
  occupations: {name: fermi-dirac,
                width: 0.05}
  xc: PBE

System changes: positions, numbers, cell, pbc, initial_charges, initial_magmoms 

Initialize ...

Li-setup:
  name: Lithium
  id: 830b4218f175192f93f959cfc0aad614
  Z: 3
  valence: 1
  core: 2
  charge: 0.0
  file: /uls/7/gpaw-20.1.0/setups/gpaw-setups-0.9.20000/Li.PBE.gz
  compensation charges: gauss, rc=0.33, lmax=2
  cutoffs: 1.91(filt), 2.55(core),
  valence states:
                energy  radius
    2s(1.00)    -2.874   1.058
    2p(0.00)    -1.090   1.058
    *s          24.337   1.058

  Using partial waves for Li as LCAO basis

N-setup:
  name: Nitrogen
  id: f7500608b86eaa90eef8b1d9a670dc53
  Z: 7
  valence: 5
  core: 2
  charge: 0.0
  file: /uls/7/gpaw-20.1.0/setups/gpaw-setups-0.9.20000/N.PBE.gz
  compensation charges: gauss, rc=0.18, lmax=2
  cutoffs: 1.11(filt), 0.96(core),
  valence states:
                energy  radius
    2s(2.00)   -18.583   0.603
    2p(3.00)    -7.089   0.529
    *s           8.629   0.603
    *p          20.123   0.529
    *d           0.000   0.577

  Using partial waves for N as LCAO basis

Reference energy: -33644.147259

Spin-paired calculation

Occupation numbers:
  Fermi-Dirac: width=0.0500 eV

Convergence criteria:
  Maximum total energy change: 0.0005 eV / electron
  Maximum integral of absolute density change: 0.0001 electrons
  Maximum integral of absolute eigenstate change: 1e-07 eV^2
  Maximum number of iterations: 333

Symmetries present (total): 1

  ( 1  0  0)
  ( 0  1  0)
  ( 0  0  1)

25 k-points: 5 x 5 x 1 Monkhorst-Pack grid
13 k-points in the irreducible part of the Brillouin zone
       k-points in crystal coordinates                weights
   0:     0.00000000    0.00000000    0.00000000          1/25
   1:     0.00000000    0.20000000    0.00000000          2/25
   2:     0.00000000    0.40000000    0.00000000          2/25
   3:     0.20000000   -0.40000000    0.00000000          2/25
   4:     0.20000000   -0.20000000    0.00000000          2/25
   5:     0.20000000    0.00000000    0.00000000          2/25
   6:     0.20000000    0.20000000    0.00000000          2/25
   7:     0.20000000    0.40000000    0.00000000          2/25
   8:     0.40000000   -0.40000000    0.00000000          2/25
   9:     0.40000000   -0.20000000    0.00000000          2/25
          ...
  12:     0.40000000    0.40000000    0.00000000          2/25

Wave functions: Plane wave expansion
  Cutoff energy: 500.000 eV
  Number of coefficients (min, max): 32263, 32394
  Pulay-stress correction: 0.000000 eV/Ang^3 (de/decut=0.000000)
  Using FFTW library
  ScaLapack parameters: grid=1x1, blocksize=None
  Wavefunction extrapolation:
    Improved wavefunction reuse through dual PAW basis 

Eigensolver
   Davidson(niter=2, smin=None, normalize=True) 

Densities:
  Coarse grid: 40*40*160 grid
  Fine grid: 80*80*320 grid
  Total Charge: 0.000000 

Density mixing:
  Method: separate
  Backend: pulay
  Linear mixing parameter: 0.05
  Mixing with 5 old densities
  Damping of long wave oscillations: 50 

Hamiltonian:
  XC and Coulomb potentials evaluated on a 80*80*320 grid
  Using the PBE Exchange-Correlation functional
 

XC parameters: PBE with 2 nearest neighbor stencil

Memory estimate:
  Process memory now: 240.73 MiB
  Calculator: 170.79 MiB
    Density: 56.64 MiB
      Arrays: 25.39 MiB
      Localized functions: 21.49 MiB
      Mixer: 9.77 MiB
    Hamiltonian: 17.13 MiB
      Arrays: 16.60 MiB
      XC: 0.00 MiB
      Poisson: 0.00 MiB
      vbar: 0.52 MiB
    Wavefunctions: 97.02 MiB
      Arrays psit_nG: 40.53 MiB
      Eigensolver: 44.03 MiB
      Projections: 0.28 MiB
      Projectors: 2.10 MiB
      PW-descriptor: 10.07 MiB

Total number of cores used: 16
Parallelization over k-points: 8
Domain decomposition: 1 x 1 x 2
                      2 x 2 x 4 (xc only)

Number of atoms: 65
Number of atomic orbitals: 260
Number of bands in calculation: 82
Number of valence electrons: 129
Bands to converge: occupied

... initialized

Initializing position-dependent things.

Density initialized from atomic densities
Creating initial wave functions:
  82 bands from LCAO basis set

                                         
                                         
                                         
                                         
                                         
                   Li                    
           Li     Li                     
              N        N  Li             
             Li   Li Li                  
              LiN   Li LiN               
                            Li           
           Li   Li Li    Li              
              N   Li   N  Li             
             Li      Li                  
              LiN   Li LiN  Li           
                                         
           Li N Li Li  N Li              
                  Li      Li             
             Li N    Li  N               
              Li    Li Li   Li           
                                         
           Li N Li Li  N Li              
                  Li      Li             
             Li N    Li  N               
              Li    Li Li   Li           
                                         
                Li       Li              
                                         
                                         
                                         
                                         

Positions:
   0 Li     1.753189    1.012426    1.530029    ( 0.0000,  0.0000,  0.0000)
   1 Li    -0.000191    4.049369    1.530029    ( 0.0000,  0.0000,  0.0000)
   2 Li     5.259899    1.012426    1.530029    ( 0.0000,  0.0000,  0.0000)
   3 Li     3.506519    4.049369    1.530029    ( 0.0000,  0.0000,  0.0000)
   4 Li     1.752542    1.016989   13.204025    ( 0.0000,  0.0000,  0.0000)
   5 Li     0.004121    4.050655   13.304116    ( 0.0000,  0.0000,  0.0000)
   6 Li     5.259021    1.011609   13.304020    ( 0.0000,  0.0000,  0.0000)
   7 Li     3.501140    4.048628   13.265566    ( 0.0000,  0.0000,  0.0000)
   8 Li     3.561592   -0.053278   15.394876    ( 0.0000,  0.0000,  0.0000)
   9 Li     1.724466    3.109061   15.083838    ( 0.0000,  0.0000,  0.0000)
  10 Li     6.959948   -0.007052   15.115459    ( 0.0000,  0.0000,  0.0000)
  11 Li     5.296868    3.037845   15.810765    ( 0.0000,  0.0000,  0.0000)
  12 Li    -0.077208    2.048355   15.396168    ( 0.0000,  0.0000,  0.0000)
  13 Li    -1.734386    5.013747   15.109954    ( 0.0000,  0.0000,  0.0000)
  14 Li     3.581120    2.036780   15.076846    ( 0.0000,  0.0000,  0.0000)
  15 Li     1.734604    5.093569   15.820981    ( 0.0000,  0.0000,  0.0000)
  16 Li     3.506465    0.000182    3.465092    ( 0.0000,  0.0000,  0.0000)
  17 Li     1.753085    3.037125    3.465092    ( 0.0000,  0.0000,  0.0000)
  18 Li     7.013175    0.000182    3.465092    ( 0.0000,  0.0000,  0.0000)
  19 Li     5.259795    3.037125    3.465092    ( 0.0000,  0.0000,  0.0000)
  20 Li    -0.000262    2.024791    3.465092    ( 0.0000,  0.0000,  0.0000)
  21 Li    -1.753642    5.061734    3.465092    ( 0.0000,  0.0000,  0.0000)
  22 Li     3.506448    2.024791    3.465092    ( 0.0000,  0.0000,  0.0000)
  23 Li     1.753068    5.061734    3.465092    ( 0.0000,  0.0000,  0.0000)
  24 Li     1.753084    1.012487    5.431887    ( 0.0000,  0.0000,  0.0000)
  25 Li    -0.000296    4.049430    5.431887    ( 0.0000,  0.0000,  0.0000)
  26 Li     5.259794    1.012487    5.431887    ( 0.0000,  0.0000,  0.0000)
  27 Li     3.506414    4.049430    5.431887    ( 0.0000,  0.0000,  0.0000)
  28 Li     3.506429    0.000182    7.378027    ( 0.0000,  0.0000,  0.0000)
  29 Li     1.753049    3.037125    7.378027    ( 0.0000,  0.0000,  0.0000)
  30 Li     7.013139    0.000182    7.378027    ( 0.0000,  0.0000,  0.0000)
  31 Li     5.259759    3.037125    7.378027    ( 0.0000,  0.0000,  0.0000)
  32 Li    -0.000297    2.024791    7.378027    ( 0.0000,  0.0000,  0.0000)
  33 Li    -1.753677    5.061734    7.378027    ( 0.0000,  0.0000,  0.0000)
  34 Li     3.506413    2.024791    7.378027    ( 0.0000,  0.0000,  0.0000)
  35 Li     1.753033    5.061734    7.378027    ( 0.0000,  0.0000,  0.0000)
  36 Li     1.753146    1.013783    9.324872    ( 0.0000,  0.0000,  0.0000)
  37 Li     0.000428    4.049529    9.353219    ( 0.0000,  0.0000,  0.0000)
  38 Li     5.259288    1.012259    9.353215    ( 0.0000,  0.0000,  0.0000)
  39 Li     3.504866    4.049339    9.342685    ( 0.0000,  0.0000,  0.0000)
  40 Li     3.507823   -0.001066   11.306109    ( 0.0000,  0.0000,  0.0000)
  41 Li     1.751253    3.040010   11.265900    ( 0.0000,  0.0000,  0.0000)
  42 Li     7.010606    0.000567   11.267662    ( 0.0000,  0.0000,  0.0000)
  43 Li     5.260692    3.037822   11.361577    ( 0.0000,  0.0000,  0.0000)
  44 Li    -0.004062    2.026534   11.306031    ( 0.0000,  0.0000,  0.0000)
  45 Li    -1.753504    5.060364   11.268023    ( 0.0000,  0.0000,  0.0000)
  46 Li     3.508552    2.025621   11.266238    ( 0.0000,  0.0000,  0.0000)
  47 Li     1.751531    5.063857   11.361008    ( 0.0000,  0.0000,  0.0000)
  48 N      1.753084    1.012487    3.439048    ( 0.0000,  0.0000,  0.0000)
  49 N     -0.000296    4.049430    3.439048    ( 0.0000,  0.0000,  0.0000)
  50 N      5.259794    1.012487    3.439048    ( 0.0000,  0.0000,  0.0000)
  51 N      3.506414    4.049430    3.439048    ( 0.0000,  0.0000,  0.0000)
  52 N      1.753031    1.012517    7.360963    ( 0.0000,  0.0000,  0.0000)
  53 N     -0.000349    4.049460    7.360963    ( 0.0000,  0.0000,  0.0000)
  54 N      5.259741    1.012517    7.360963    ( 0.0000,  0.0000,  0.0000)
  55 N      3.506361    4.049460    7.360963    ( 0.0000,  0.0000,  0.0000)
  56 N      1.752371    1.013281   11.246059    ( 0.0000,  0.0000,  0.0000)
  57 N     -0.000913    4.050249   11.307563    ( 0.0000,  0.0000,  0.0000)
  58 N      5.259259    1.013071   11.307545    ( 0.0000,  0.0000,  0.0000)
  59 N      3.505554    4.050175   11.283695    ( 0.0000,  0.0000,  0.0000)
  60 N      1.741750    0.997300   15.099596    ( 0.0000,  0.0000,  0.0000)
  61 N     -0.009141    4.058603   15.287053    ( 0.0000,  0.0000,  0.0000)
  62 N      5.268531    1.011560   15.286818    ( 0.0000,  0.0000,  0.0000)
  63 N      3.509394    4.056517   15.224448    ( 0.0000,  0.0000,  0.0000)
  64 Li     2.252203    1.846643   17.105602    ( 0.0000,  0.0000,  0.0000)

Unit cell:
           periodic     x           y           z      points  spacing
  1. axis:    yes    7.013420    0.000000    0.000000    40     0.1518
  2. axis:    yes   -3.506760    6.073886    0.000000    40     0.1518
  3. axis:    yes    0.000000    0.000000   29.936001   160     0.1871

  Lengths:   7.013420   7.013520  29.936001
  Angles:   90.000000  90.000000 120.000000

Effective grid spacing dv^(1/3) = 0.1708

                     log10-error:    total        iterations:
           time      wfs    density  energy       fermi  poisson
iter:   1  09:24:44                -275.005587    4             
iter:   2  09:25:24  -0.99  -0.51  -262.536325    5             
iter:   3  09:26:04  -0.41  -0.57  -279.086315    37            
iter:   4  09:26:44  -1.86  -0.52  -251.416140    32            
iter:   5  09:27:24  -2.71  -0.72  -249.051481    4             
iter:   6  09:28:04  -1.48  -0.72  -244.913731    3             
iter:   7  09:28:44  -1.45  -0.79  -239.860465    33            
iter:   8  09:29:23  -1.51  -0.89  -238.124214    6             
iter:   9  09:30:03  -2.21  -0.97  -237.628538    35            
iter:  10  09:30:43  -1.73  -0.95  -237.516250    33            
iter:  11  09:31:23  -1.61  -0.93  -236.838590    35            
iter:  12  09:32:04  -3.31  -0.97  -236.289471    4             
iter:  13  09:32:43  -1.88  -1.01  -248.644175    36            
iter:  14  09:33:23  -2.11  -0.89  -240.536148    36            
iter:  15  09:34:03  -2.72  -1.00  -237.750179    35            
iter:  16  09:34:43  -1.85  -1.09  -235.425250    33            
iter:  17  09:35:23  -2.63  -1.19  -235.251964    4             
iter:  18  09:36:03  -1.60  -1.23  -234.770671    5             
iter:  19  09:36:43  -2.67  -1.57  -234.563218    4             
iter:  20  09:37:24  -3.14  -1.56  -234.633611    4             
iter:  21  09:38:04  -2.43  -1.68  -234.584461    3             
iter:  22  09:38:44  -3.22  -1.58  -234.404332    3             
iter:  23  09:39:24  -3.44  -1.91  -234.403143    4             
iter:  24  09:40:04  -3.70  -1.88  -234.381475    3             
iter:  25  09:40:44  -4.08  -2.09  -234.377540    3             
iter:  26  09:41:24  -3.74  -2.18  -234.392089    4             
iter:  27  09:42:04  -3.48  -2.22  -234.389543    3             
iter:  28  09:42:44  -4.59  -2.41  -234.371194    2             
iter:  29  09:43:25  -5.32  -2.49  -234.369817    2             
iter:  30  09:44:06  -4.84  -2.49  -234.367838    2             
iter:  31  09:44:47  -4.49  -2.62  -234.369257    2             
iter:  32  09:45:26  -5.09  -2.92  -234.369487    2             
iter:  33  09:46:07  -5.50  -2.93  -234.370401    2             
iter:  34  09:46:47  -6.09  -3.03  -234.368695    2             
iter:  35  09:47:27  -7.29  -3.22  -234.368932    2             
iter:  36  09:48:06  -5.96  -3.26  -234.369083    2             
iter:  37  09:48:46  -6.14  -3.30  -234.369384    2             
iter:  38  09:49:28  -6.05  -3.32  -234.368740    2             
iter:  39  09:50:09  -5.90  -3.51  -234.368585    2             
iter:  40  09:50:48  -6.51  -3.56  -234.368747    2             
iter:  41  09:51:29  -7.44  -3.76  -234.368825    1             
iter:  42  09:52:08  -7.06  -3.86  -234.368793    2             
iter:  43  09:52:48  -7.95  -3.97  -234.368906    2             
iter:  44  09:53:28  -7.40  -4.04  -234.368804    2             

Converged after 44 iterations.

Dipole moment: (-2.622746, 1.499602, -11.360157) |e|*Ang

Energy contributions relative to reference atoms: (reference = -33644.147259)

Kinetic:       +256.728405
Potential:     -189.413856
External:        +0.000000
XC:            -300.372991
Entropy (-ST):   -0.075361
Local:           -1.272682
--------------------------
Free energy:   -234.406485
Extrapolated:  -234.368804

Fermi level: -0.26129

Showing only first 2 kpts
 Kpt  Band  Eigenvalues  Occupancy
  0    62     -0.53787    0.07968
  0    63     -0.06080    0.00143
  0    64     -0.01901    0.00062
  0    65      0.19373    0.00001

  1    62     -0.59321    0.15979
  1    63     -0.30864    0.11529
  1    64     -0.14397    0.01398
  1    65      0.36352    0.00000



Forces in eV/Ang:
  0 Li   -0.00007    0.00006   -0.04609
  1 Li   -0.00007    0.00005   -0.04628
  2 Li   -0.00008    0.00005   -0.04627
  3 Li   -0.00008    0.00004   -0.04617
  4 Li   -0.00313   -0.00606   -0.02858
  5 Li   -0.01580    0.00008    0.11526
  6 Li    0.00595   -0.00410    0.11507
  7 Li    0.00846    0.00556    0.00898
  8 Li   -0.40998    0.37540   -0.22026
  9 Li    0.04776    0.03846   -0.46838
 10 Li    0.23606   -0.09773    0.15135
 11 Li   -0.50839    0.24934    0.27131
 12 Li    0.55614   -0.18475   -0.21087
 13 Li   -0.21363    0.15398    0.15150
 14 Li    0.00941    0.06982   -0.47777
 15 Li    0.44648   -0.29633    0.25739
 16 Li    0.00002   -0.00013   -0.03968
 17 Li   -0.00004   -0.00012   -0.03974
 18 Li   -0.00001   -0.00008   -0.03981
 19 Li    0.00005   -0.00014   -0.03967
 20 Li   -0.00009    0.00008   -0.03968
 21 Li   -0.00003    0.00008   -0.03982
 22 Li   -0.00006    0.00003   -0.03976
 23 Li   -0.00012    0.00010   -0.03963
 24 Li    0.00006    0.00016   -0.04910
 25 Li    0.00014   -0.00003   -0.04383
 26 Li   -0.00008   -0.00000   -0.04383
 27 Li   -0.00015   -0.00012   -0.04600
 28 Li    0.00337   -0.00219    0.00613
 29 Li   -0.00200    0.00335    0.00075
 30 Li   -0.00355   -0.00005    0.00357
 31 Li    0.00160   -0.00078    0.01113
 32 Li   -0.00418    0.00233    0.00617
 33 Li    0.00140   -0.00302    0.00456
 34 Li    0.00375    0.00041    0.00171
 35 Li   -0.00203    0.00143    0.00914
 36 Li   -0.00205   -0.00470   -0.00741
 37 Li   -0.00430    0.00142    0.01291
 38 Li    0.00159    0.00076    0.01281
 39 Li    0.00469    0.00324   -0.00213
 40 Li   -0.01096    0.01270    0.01019
 41 Li    0.00353   -0.00757    0.01442
 42 Li    0.00650    0.00177   -0.00072
 43 Li   -0.01245    0.00071    0.01325
 44 Li    0.01785   -0.00358    0.00965
 45 Li   -0.00194    0.00677    0.00158
 46 Li   -0.00896   -0.00054    0.01625
 47 Li    0.00621   -0.01051    0.00645
 48 N    -0.00027    0.00003    0.07965
 49 N    -0.00023    0.00017    0.09174
 50 N    -0.00020    0.00019    0.09174
 51 N    -0.00011    0.00026    0.08090
 52 N     0.00043    0.00123   -0.03548
 53 N     0.00104   -0.00022    0.06786
 54 N    -0.00054   -0.00017    0.06792
 55 N    -0.00133   -0.00069    0.03276
 56 N    -0.00395   -0.00501   -0.04045
 57 N     0.00143    0.00139   -0.02780
 58 N     0.00121   -0.00146   -0.02719
 59 N     0.00279    0.00761   -0.01077
 60 N     0.40480    0.67762    1.06257
 61 N     0.21092   -0.24704    0.03784
 62 N    -0.31725    0.03905    0.04850
 63 N    -0.25022   -0.42827    0.01324
 64 Li   -0.21047   -0.34769   -0.69947

System changes: positions 

Initializing position-dependent things.

Density initialized from wave functions
                                         
                                         
                                         
                                         
                                         
                   Li                    
           Li     Li                     
              N        N  Li             
             Li   Li Li                  
              LiN   Li LiN               
                            Li           
           Li   Li Li    Li              
              N   Li   N  Li             
             Li      Li                  
              LiN   Li LiN  Li           
                                         
           Li N Li Li  N Li              
                  Li      Li             
             Li N    Li  N               
              Li    Li Li   Li           
                                         
           Li N Li Li  N Li              
             Li   Li Li   Li             
                N        N               
              Li    Li Li   Li           
                                         
                Li       Li              
                                         
                                         
                                         
                                         

Positions:
   0 Li     1.753189    1.012426    1.530029    ( 0.0000,  0.0000,  0.0000)
   1 Li    -0.000191    4.049369    1.530029    ( 0.0000,  0.0000,  0.0000)
   2 Li     5.259899    1.012426    1.530029    ( 0.0000,  0.0000,  0.0000)
   3 Li     3.506519    4.049369    1.530029    ( 0.0000,  0.0000,  0.0000)
   4 Li     1.752478    1.016890   13.203872    ( 0.0000,  0.0000,  0.0000)
   5 Li     0.003897    4.050666   13.305751    ( 0.0000,  0.0000,  0.0000)
   6 Li     5.259123    1.011518   13.305653    ( 0.0000,  0.0000,  0.0000)
   7 Li     3.501252    4.048732   13.265442    ( 0.0000,  0.0000,  0.0000)
   8 Li     3.555558   -0.047882   15.393514    ( 0.0000,  0.0000,  0.0000)
   9 Li     1.724853    3.109369   15.076819    ( 0.0000,  0.0000,  0.0000)
  10 Li     6.963462   -0.008224   15.117652    ( 0.0000,  0.0000,  0.0000)
  11 Li     5.289817    3.041360   15.812827    ( 0.0000,  0.0000,  0.0000)
  12 Li    -0.069158    2.045590   15.394939    ( 0.0000,  0.0000,  0.0000)
  13 Li    -1.737311    5.016186   15.112118    ( 0.0000,  0.0000,  0.0000)
  14 Li     3.581190    2.037394   15.069639    ( 0.0000,  0.0000,  0.0000)
  15 Li     1.740843    5.089485   15.822911    ( 0.0000,  0.0000,  0.0000)
  16 Li     3.506465    0.000182    3.465092    ( 0.0000,  0.0000,  0.0000)
  17 Li     1.753085    3.037125    3.465092    ( 0.0000,  0.0000,  0.0000)
  18 Li     7.013175    0.000182    3.465092    ( 0.0000,  0.0000,  0.0000)
  19 Li     5.259795    3.037125    3.465092    ( 0.0000,  0.0000,  0.0000)
  20 Li    -0.000262    2.024791    3.465092    ( 0.0000,  0.0000,  0.0000)
  21 Li    -1.753642    5.061734    3.465092    ( 0.0000,  0.0000,  0.0000)
  22 Li     3.506448    2.024791    3.465092    ( 0.0000,  0.0000,  0.0000)
  23 Li     1.753068    5.061734    3.465092    ( 0.0000,  0.0000,  0.0000)
  24 Li     1.753084    1.012487    5.431887    ( 0.0000,  0.0000,  0.0000)
  25 Li    -0.000296    4.049430    5.431887    ( 0.0000,  0.0000,  0.0000)
  26 Li     5.259794    1.012487    5.431887    ( 0.0000,  0.0000,  0.0000)
  27 Li     3.506414    4.049430    5.431887    ( 0.0000,  0.0000,  0.0000)
  28 Li     3.506429    0.000182    7.378027    ( 0.0000,  0.0000,  0.0000)
  29 Li     1.753049    3.037125    7.378027    ( 0.0000,  0.0000,  0.0000)
  30 Li     7.013139    0.000182    7.378027    ( 0.0000,  0.0000,  0.0000)
  31 Li     5.259759    3.037125    7.378027    ( 0.0000,  0.0000,  0.0000)
  32 Li    -0.000297    2.024791    7.378027    ( 0.0000,  0.0000,  0.0000)
  33 Li    -1.753677    5.061734    7.378027    ( 0.0000,  0.0000,  0.0000)
  34 Li     3.506413    2.024791    7.378027    ( 0.0000,  0.0000,  0.0000)
  35 Li     1.753033    5.061734    7.378027    ( 0.0000,  0.0000,  0.0000)
  36 Li     1.753114    1.013714    9.324836    ( 0.0000,  0.0000,  0.0000)
  37 Li     0.000369    4.049550    9.353402    ( 0.0000,  0.0000,  0.0000)
  38 Li     5.259313    1.012266    9.353397    ( 0.0000,  0.0000,  0.0000)
  39 Li     3.504929    4.049390    9.342588    ( 0.0000,  0.0000,  0.0000)
  40 Li     3.507657   -0.000882   11.306494    ( 0.0000,  0.0000,  0.0000)
  41 Li     1.751296    3.039889   11.266104    ( 0.0000,  0.0000,  0.0000)
  42 Li     7.010704    0.000603   11.267650    ( 0.0000,  0.0000,  0.0000)
  43 Li     5.260520    3.037828   11.361529    ( 0.0000,  0.0000,  0.0000)
  44 Li    -0.003804    2.026479   11.306409    ( 0.0000,  0.0000,  0.0000)
  45 Li    -1.753527    5.060471   11.268045    ( 0.0000,  0.0000,  0.0000)
  46 Li     3.508417    2.025602   11.266470    ( 0.0000,  0.0000,  0.0000)
  47 Li     1.751612    5.063711   11.360859    ( 0.0000,  0.0000,  0.0000)
  48 N      1.753084    1.012487    3.439048    ( 0.0000,  0.0000,  0.0000)
  49 N     -0.000296    4.049430    3.439048    ( 0.0000,  0.0000,  0.0000)
  50 N      5.259794    1.012487    3.439048    ( 0.0000,  0.0000,  0.0000)
  51 N      3.506414    4.049430    3.439048    ( 0.0000,  0.0000,  0.0000)
  52 N      1.753031    1.012517    7.360963    ( 0.0000,  0.0000,  0.0000)
  53 N     -0.000349    4.049460    7.360963    ( 0.0000,  0.0000,  0.0000)
  54 N      5.259741    1.012517    7.360963    ( 0.0000,  0.0000,  0.0000)
  55 N      3.506361    4.049460    7.360963    ( 0.0000,  0.0000,  0.0000)
  56 N      1.752312    1.013207   11.245638    ( 0.0000,  0.0000,  0.0000)
  57 N     -0.000895    4.050270   11.307167    ( 0.0000,  0.0000,  0.0000)
  58 N      5.259277    1.013048   11.307157    ( 0.0000,  0.0000,  0.0000)
  59 N      3.505592    4.050285   11.283394    ( 0.0000,  0.0000,  0.0000)
  60 N      1.747545    1.007011   15.115344    ( 0.0000,  0.0000,  0.0000)
  61 N     -0.006178    4.055079   15.287573    ( 0.0000,  0.0000,  0.0000)
  62 N      5.264018    1.012083   15.287488    ( 0.0000,  0.0000,  0.0000)
  63 N      3.505843    4.050439   15.224177    ( 0.0000,  0.0000,  0.0000)
  64 Li     2.252511    1.847231   17.096242    ( 0.0000,  0.0000,  0.0000)

Unit cell:
           periodic     x           y           z      points  spacing
  1. axis:    yes    7.013420    0.000000    0.000000    40     0.1518
  2. axis:    yes   -3.506760    6.073886    0.000000    40     0.1518
  3. axis:    yes    0.000000    0.000000   29.936001   160     0.1871

  Lengths:   7.013420   7.013520  29.936001
  Angles:   90.000000  90.000000 120.000000

Effective grid spacing dv^(1/3) = 0.1708

                     log10-error:    total        iterations:
           time      wfs    density  energy       fermi  poisson
iter:   1  10:02:38  -3.38         -234.436332    2             
iter:   2  10:03:18  -4.59  -2.72  -234.444165    3             
iter:   3  10:03:58  -5.48  -2.57  -234.435281    2             
iter:   4  10:04:38  -4.39  -2.88  -234.434442    2             
iter:   5  10:05:18  -5.70  -3.06  -234.433424    2             
iter:   6  10:06:00  -5.02  -3.23  -234.432400    2             
iter:   7  10:06:41  -5.37  -3.40  -234.432882    2             
iter:   8  10:07:21  -6.20  -3.41  -234.432571    2             
iter:   9  10:08:01  -6.15  -3.55  -234.432756    2             
iter:  10  10:08:41  -6.40  -3.88  -234.432649    2             
iter:  11  10:09:22  -7.18  -4.00  -234.432803    2             
iter:  12  10:10:02  -7.17  -4.07  -234.432807    2             

Converged after 12 iterations.

Dipole moment: (-2.618582, 1.492170, -11.355779) |e|*Ang

Energy contributions relative to reference atoms: (reference = -33644.147259)

Kinetic:       +256.575833
Potential:     -189.311821
External:        +0.000000
XC:            -300.371420
Entropy (-ST):   -0.075041
Local:           -1.287878
--------------------------
Free energy:   -234.470327
Extrapolated:  -234.432807

Fermi level: -0.26303

Showing only first 2 kpts
 Kpt  Band  Eigenvalues  Occupancy
  0    62     -0.54099    0.07969
  0    63     -0.05642    0.00126
  0    64     -0.02587    0.00069
  0    65      0.19036    0.00001

  1    62     -0.59381    0.15979
  1    63     -0.30844    0.11402
  1    64     -0.14905    0.01485
  1    65      0.36171    0.00000



Forces in eV/Ang:
  0 Li   -0.00007    0.00006   -0.04798
  1 Li   -0.00007    0.00005   -0.04819
  2 Li   -0.00008    0.00005   -0.04819
  3 Li   -0.00008    0.00004   -0.04807
  4 Li   -0.00303   -0.00591    0.04049
  5 Li   -0.01896    0.00155    0.10254
  6 Li    0.00904   -0.00655    0.10279
  7 Li    0.00896    0.00726    0.00555
  8 Li   -0.34877    0.31709   -0.19085
  9 Li    0.05097    0.04149   -0.44875
 10 Li    0.19637   -0.07862    0.15941
 11 Li   -0.44908    0.20914    0.26488
 12 Li    0.47049   -0.15789   -0.18105
 13 Li   -0.17481    0.12969    0.15968
 14 Li    0.01024    0.07207   -0.45769
 15 Li    0.38617   -0.26842    0.25149
 16 Li    0.00004   -0.00014   -0.04030
 17 Li   -0.00005   -0.00011   -0.04037
 18 Li   -0.00002   -0.00008   -0.04043
 19 Li    0.00006   -0.00014   -0.04027
 20 Li   -0.00011    0.00009   -0.04030
 21 Li   -0.00003    0.00007   -0.04045
 22 Li   -0.00004    0.00003   -0.04039
 23 Li   -0.00012    0.00010   -0.04023
 24 Li    0.00007    0.00018   -0.04990
 25 Li    0.00015   -0.00004   -0.04452
 26 Li   -0.00009    0.00000   -0.04452
 27 Li   -0.00016   -0.00013   -0.04679
 28 Li    0.00359   -0.00224    0.00642
 29 Li   -0.00207    0.00348    0.00107
 30 Li   -0.00378   -0.00002    0.00363
 31 Li    0.00168   -0.00090    0.01150
 32 Li   -0.00433    0.00250    0.00647
 33 Li    0.00154   -0.00318    0.00459
 34 Li    0.00390    0.00042    0.00200
 35 Li   -0.00217    0.00143    0.00958
 36 Li   -0.00187   -0.00436   -0.00996
 37 Li   -0.00408    0.00131    0.01002
 38 Li    0.00143    0.00084    0.00996
 39 Li    0.00447    0.00293   -0.00308
 40 Li   -0.00722    0.00979    0.00883
 41 Li    0.00275   -0.00464    0.01220
 42 Li    0.00336    0.00114   -0.00224
 43 Li   -0.00997    0.00013    0.01318
 44 Li    0.01328   -0.00171    0.00824
 45 Li   -0.00088    0.00380   -0.00009
 46 Li   -0.00604    0.00018    0.01388
 47 Li    0.00461   -0.00870    0.00671
 48 N    -0.00025    0.00007    0.06760
 49 N    -0.00024    0.00018    0.08035
 50 N    -0.00018    0.00018    0.08039
 51 N    -0.00012    0.00025    0.06944
 52 N     0.00023    0.00089   -0.02921
 53 N     0.00082   -0.00015    0.07345
 54 N    -0.00039   -0.00032    0.07351
 55 N    -0.00117   -0.00042    0.03791
 56 N    -0.00196   -0.00203   -0.02437
 57 N     0.00254    0.00053   -0.01957
 58 N    -0.00035   -0.00009   -0.01890
 59 N     0.00101    0.00376   -0.00742
 60 N     0.34908    0.58211    0.90398
 61 N     0.15188   -0.18334    0.02730
 62 N    -0.23215    0.02512    0.03686
 63 N    -0.20163   -0.34364   -0.00565
 64 Li   -0.20566   -0.33971   -0.69089

System changes: positions 

Initializing position-dependent things.

Density initialized from wave functions
                                         
                                         
                                         
                                         
                                         
                   Li                    
           Li     Li                     
              N        N  Li             
             Li   Li Li                  
              Li N  Li LiN  Li           
                                         
           Li N Li Li    Li              
                  Li   N  Li             
             Li      Li  N               
              LiN   Li Li   Li           
                                         
           Li N Li Li  N Li              
                  Li      Li             
             Li N    Li  N               
              Li    Li Li   Li           
           Li      Li                    
              N Li     N Li              
             Li   Li Li   Li             
                N        N               
              Li    Li Li   Li           
                                         
                Li       Li              
                                         
                                         
                                         
                                         

Positions:
   0 Li     1.753189    1.012426    1.530029    ( 0.0000,  0.0000,  0.0000)
   1 Li    -0.000191    4.049369    1.530029    ( 0.0000,  0.0000,  0.0000)
   2 Li     5.259899    1.012426    1.530029    ( 0.0000,  0.0000,  0.0000)
   3 Li     3.506519    4.049369    1.530029    ( 0.0000,  0.0000,  0.0000)
   4 Li     1.751972    1.016105   13.210311    ( 0.0000,  0.0000,  0.0000)
   5 Li     0.001704    4.050933   13.317648    ( 0.0000,  0.0000,  0.0000)
   6 Li     5.260313    1.010512   13.317571    ( 0.0000,  0.0000,  0.0000)
   7 Li     3.502225    4.049764   13.264148    ( 0.0000,  0.0000,  0.0000)
   8 Li     3.513234   -0.010443   15.385349    ( 0.0000,  0.0000,  0.0000)
   9 Li     1.728488    3.112198   15.022034    ( 0.0000,  0.0000,  0.0000)
  10 Li     6.987570   -0.015737   15.136373    ( 0.0000,  0.0000,  0.0000)
  11 Li     5.238834    3.065494   15.829333    ( 0.0000,  0.0000,  0.0000)
  12 Li    -0.013154    2.026061   15.387903    ( 0.0000,  0.0000,  0.0000)
  13 Li    -1.756845    5.033217   15.130624    ( 0.0000,  0.0000,  0.0000)
  14 Li     3.581770    2.042750   15.013389    ( 0.0000,  0.0000,  0.0000)
  15 Li     1.785007    5.059200   15.838388    ( 0.0000,  0.0000,  0.0000)
  16 Li     3.506465    0.000182    3.465092    ( 0.0000,  0.0000,  0.0000)
  17 Li     1.753085    3.037125    3.465092    ( 0.0000,  0.0000,  0.0000)
  18 Li     7.013175    0.000182    3.465092    ( 0.0000,  0.0000,  0.0000)
  19 Li     5.259795    3.037125    3.465092    ( 0.0000,  0.0000,  0.0000)
  20 Li    -0.000262    2.024791    3.465092    ( 0.0000,  0.0000,  0.0000)
  21 Li    -1.753642    5.061734    3.465092    ( 0.0000,  0.0000,  0.0000)
  22 Li     3.506448    2.024791    3.465092    ( 0.0000,  0.0000,  0.0000)
  23 Li     1.753068    5.061734    3.465092    ( 0.0000,  0.0000,  0.0000)
  24 Li     1.753084    1.012487    5.431887    ( 0.0000,  0.0000,  0.0000)
  25 Li    -0.000296    4.049430    5.431887    ( 0.0000,  0.0000,  0.0000)
  26 Li     5.259794    1.012487    5.431887    ( 0.0000,  0.0000,  0.0000)
  27 Li     3.506414    4.049430    5.431887    ( 0.0000,  0.0000,  0.0000)
  28 Li     3.506429    0.000182    7.378027    ( 0.0000,  0.0000,  0.0000)
  29 Li     1.753049    3.037125    7.378027    ( 0.0000,  0.0000,  0.0000)
  30 Li     7.013139    0.000182    7.378027    ( 0.0000,  0.0000,  0.0000)
  31 Li     5.259759    3.037125    7.378027    ( 0.0000,  0.0000,  0.0000)
  32 Li    -0.000297    2.024791    7.378027    ( 0.0000,  0.0000,  0.0000)
  33 Li    -1.753677    5.061734    7.378027    ( 0.0000,  0.0000,  0.0000)
  34 Li     3.506413    2.024791    7.378027    ( 0.0000,  0.0000,  0.0000)
  35 Li     1.753033    5.061734    7.378027    ( 0.0000,  0.0000,  0.0000)
  36 Li     1.752875    1.013192    9.324242    ( 0.0000,  0.0000,  0.0000)
  37 Li    -0.000085    4.049712    9.354566    ( 0.0000,  0.0000,  0.0000)
  38 Li     5.259498    1.012330    9.354554    ( 0.0000,  0.0000,  0.0000)
  39 Li     3.505416    4.049766    9.341712    ( 0.0000,  0.0000,  0.0000)
  40 Li     3.506737    0.000289   11.309392    ( 0.0000,  0.0000,  0.0000)
  41 Li     1.751560    3.039247   11.267515    ( 0.0000,  0.0000,  0.0000)
  42 Li     7.011150    0.000815   11.267375    ( 0.0000,  0.0000,  0.0000)
  43 Li     5.259393    3.037818   11.361217    ( 0.0000,  0.0000,  0.0000)
  44 Li    -0.002224    2.026245   11.309241    ( 0.0000,  0.0000,  0.0000)
  45 Li    -1.753596    5.060993   11.268035    ( 0.0000,  0.0000,  0.0000)
  46 Li     3.507654    2.025536   11.268091    ( 0.0000,  0.0000,  0.0000)
  47 Li     1.752091    5.062724   11.359763    ( 0.0000,  0.0000,  0.0000)
  48 N      1.753084    1.012487    3.439048    ( 0.0000,  0.0000,  0.0000)
  49 N     -0.000296    4.049430    3.439048    ( 0.0000,  0.0000,  0.0000)
  50 N      5.259794    1.012487    3.439048    ( 0.0000,  0.0000,  0.0000)
  51 N      3.506414    4.049430    3.439048    ( 0.0000,  0.0000,  0.0000)
  52 N      1.753031    1.012517    7.360963    ( 0.0000,  0.0000,  0.0000)
  53 N     -0.000349    4.049460    7.360963    ( 0.0000,  0.0000,  0.0000)
  54 N      5.259741    1.012517    7.360963    ( 0.0000,  0.0000,  0.0000)
  55 N      3.506361    4.049460    7.360963    ( 0.0000,  0.0000,  0.0000)
  56 N      1.752052    1.012940   11.243976    ( 0.0000,  0.0000,  0.0000)
  57 N     -0.000621    4.050339   11.304853    ( 0.0000,  0.0000,  0.0000)
  58 N      5.259244    1.013014   11.304920    ( 0.0000,  0.0000,  0.0000)
  59 N      3.505707    4.050755   11.281367    ( 0.0000,  0.0000,  0.0000)
  60 N      1.788461    1.075334   15.224830    ( 0.0000,  0.0000,  0.0000)
  61 N      0.011429    4.033607   15.290606    ( 0.0000,  0.0000,  0.0000)
  62 N      5.236834    1.014896   15.291635    ( 0.0000,  0.0000,  0.0000)
  63 N      3.482260    4.010222   15.220312    ( 0.0000,  0.0000,  0.0000)
  64 Li     2.254563    1.851258   17.021021    ( 0.0000,  0.0000,  0.0000)

Unit cell:
           periodic     x           y           z      points  spacing
  1. axis:    yes    7.013420    0.000000    0.000000    40     0.1518
  2. axis:    yes   -3.506760    6.073886    0.000000    40     0.1518
  3. axis:    yes    0.000000    0.000000   29.936001   160     0.1871

  Lengths:   7.013420   7.013520  29.936001
  Angles:   90.000000  90.000000 120.000000

Effective grid spacing dv^(1/3) = 0.1708

                     log10-error:    total        iterations:
           time      wfs    density  energy       fermi  poisson
iter:   1  10:12:11  -1.69         -235.006263    3             
iter:   2  10:12:51  -2.75  -1.74  -235.257367    4             
iter:   3  10:13:31  -3.67  -1.67  -234.818293    3             
iter:   4  10:14:11  -3.01  -1.97  -235.039582    4             
iter:   5  10:14:51  -3.69  -1.69  -234.735574    4             
iter:   6  10:15:31  -3.43  -2.15  -234.719308    2             
iter:   7  10:16:11  -3.47  -2.22  -234.698817    3             
iter:   8  10:16:52  -4.36  -2.32  -234.670130    3             
iter:   9  10:17:31  -5.29  -2.72  -234.668524    2             
iter:  10  10:18:11  -4.50  -2.67  -234.667506    3             
iter:  11  10:18:52  -4.73  -3.01  -234.665192    2             
iter:  12  10:19:32  -5.35  -2.96  -234.670103    3             
iter:  13  10:20:14  -5.58  -2.91  -234.666282    2             
iter:  14  10:20:54  -6.51  -3.34  -234.666556    2             
iter:  15  10:21:35  -5.87  -3.40  -234.666214    2             
iter:  16  10:22:15  -6.06  -3.55  -234.666114    2             
iter:  17  10:22:55  -6.43  -3.55  -234.666116    2             
iter:  18  10:23:36  -6.28  -3.60  -234.666052    2             
iter:  19  10:24:17  -6.83  -3.62  -234.666326    2             
iter:  20  10:24:56  -7.65  -3.78  -234.666209    2             
iter:  21  10:25:36  -7.05  -3.83  -234.666325    2             
iter:  22  10:26:17  -7.15  -4.01  -234.666218    2             

Converged after 22 iterations.

Dipole moment: (-2.516958, 1.405091, -11.374820) |e|*Ang

Energy contributions relative to reference atoms: (reference = -33644.147259)

Kinetic:       +256.480814
Potential:     -189.332579
External:        +0.000000
XC:            -300.489440
Entropy (-ST):   -0.075562
Local:           -1.287232
--------------------------
Free energy:   -234.703999
Extrapolated:  -234.666218

Fermi level: -0.27204

Showing only first 2 kpts
 Kpt  Band  Eigenvalues  Occupancy
  0    62     -0.52663    0.07951
  0    63     -0.07526    0.00153
  0    64     -0.02138    0.00053
  0    65      0.16399    0.00001

  1    62     -0.59170    0.15973
  1    63     -0.30609    0.10623
  1    64     -0.17452    0.01992
  1    65      0.34589    0.00000



Forces in eV/Ang:
  0 Li   -0.00007    0.00006   -0.04902
  1 Li   -0.00007    0.00005   -0.04916
  2 Li   -0.00008    0.00005   -0.04916
  3 Li   -0.00008    0.00004   -0.04904
  4 Li    0.00264    0.00352    0.29911
  5 Li   -0.04788    0.01625    0.01490
  6 Li    0.03845   -0.02762    0.01805
  7 Li    0.01808    0.02993   -0.02283
  8 Li    0.08051   -0.02308    0.00480
  9 Li    0.04594    0.08631   -0.30393
 10 Li   -0.07207    0.03408    0.19471
 11 Li   -0.07760   -0.05720    0.22215
 12 Li   -0.06359    0.06291    0.01612
 13 Li    0.07111   -0.04155    0.19531
 14 Li    0.05169    0.07666   -0.30847
 15 Li   -0.00633   -0.09855    0.21084
 16 Li    0.00012   -0.00016   -0.04178
 17 Li   -0.00008   -0.00005   -0.04195
 18 Li   -0.00011   -0.00006   -0.04197
 19 Li    0.00009   -0.00019   -0.04173
 20 Li   -0.00017    0.00015   -0.04178
 21 Li    0.00003   -0.00000   -0.04198
 22 Li    0.00002    0.00003   -0.04196
 23 Li   -0.00018    0.00010   -0.04170
 24 Li    0.00000    0.00005   -0.05407
 25 Li    0.00006   -0.00000   -0.04796
 26 Li   -0.00002   -0.00002   -0.04797
 27 Li   -0.00008   -0.00002   -0.05084
 28 Li    0.00501   -0.00311    0.00523
 29 Li   -0.00297    0.00466   -0.00032
 30 Li   -0.00521    0.00015    0.00110
 31 Li    0.00259   -0.00136    0.01056
 32 Li   -0.00571    0.00329    0.00530
 33 Li    0.00239   -0.00426    0.00180
 34 Li    0.00525    0.00023    0.00031
 35 Li   -0.00301    0.00193    0.00916
 36 Li   -0.00099   -0.00271   -0.01794
 37 Li   -0.00277    0.00069   -0.00802
 38 Li    0.00053    0.00126   -0.00782
 39 Li    0.00321    0.00137   -0.00894
 40 Li    0.01455   -0.00769    0.00734
 41 Li   -0.00265    0.01140    0.00588
 42 Li   -0.01381   -0.00151   -0.00487
 43 Li    0.00634   -0.00378    0.01706
 44 Li   -0.01379    0.00885    0.00627
 45 Li    0.00560   -0.01204   -0.00386
 46 Li    0.01052    0.00315    0.00630
 47 Li   -0.00606    0.00320    0.01339
 48 N    -0.00004    0.00041    0.08046
 49 N    -0.00022    0.00024    0.09039
 50 N    -0.00013    0.00023    0.09046
 51 N    -0.00023    0.00006    0.07916
 52 N     0.00026    0.00080   -0.01805
 53 N     0.00059   -0.00018    0.07944
 54 N    -0.00044   -0.00019    0.07960
 55 N    -0.00098   -0.00052    0.04187
 56 N    -0.00415   -0.00782    0.08516
 57 N    -0.00483    0.00240    0.03418
 58 N     0.00393    0.00019    0.03532
 59 N     0.00456    0.00474    0.01730
 60 N    -0.07356   -0.13583   -0.03609
 61 N    -0.17666    0.14117   -0.05384
 62 N     0.21448   -0.07285   -0.05113
 63 N     0.11987    0.21149   -0.06883
 64 Li   -0.12732   -0.20963   -0.44902

System changes: positions 

Initializing position-dependent things.

Density initialized from wave functions
                                         
                                         
                                         
                                         
                                         
                   Li                    
           Li     Li                     
              N        N  Li             
             Li   Li  Li                 
              Li N  Li LiN  Li           
                                         
           Li N Li Li    Li              
                  Li   N  Li             
             Li      Li  N               
              LiN   Li Li   Li           
                                         
           Li N Li Li  N Li              
                  Li      Li             
             Li N    Li  N               
              Li    Li Li   Li           
           Li      Li                    
              N Li     N Li              
             Li   Li Li   Li             
                N        N               
              Li    Li Li   Li           
                                         
                Li       Li              
                                         
                                         
                                         
                                         

Positions:
   0 Li     1.753189    1.012426    1.530029    ( 0.0000,  0.0000,  0.0000)
   1 Li    -0.000191    4.049369    1.530029    ( 0.0000,  0.0000,  0.0000)
   2 Li     5.259899    1.012426    1.530029    ( 0.0000,  0.0000,  0.0000)
   3 Li     3.506519    4.049369    1.530029    ( 0.0000,  0.0000,  0.0000)
   4 Li     1.751957    1.016085   13.215202    ( 0.0000,  0.0000,  0.0000)
   5 Li     0.000818    4.051208   13.318846    ( 0.0000,  0.0000,  0.0000)
   6 Li     5.260995    1.010006   13.318816    ( 0.0000,  0.0000,  0.0000)
   7 Li     3.502567    4.050304   13.263577    ( 0.0000,  0.0000,  0.0000)
   8 Li     3.510721   -0.007588   15.385962    ( 0.0000,  0.0000,  0.0000)
   9 Li     1.729279    3.113478   15.012936    ( 0.0000,  0.0000,  0.0000)
  10 Li     6.988606   -0.015765   15.140728    ( 0.0000,  0.0000,  0.0000)
  11 Li     5.233509    3.066645   15.832713    ( 0.0000,  0.0000,  0.0000)
  12 Li    -0.009278    2.025254   15.388775    ( 0.0000,  0.0000,  0.0000)
  13 Li    -1.757387    5.034150   15.134952    ( 0.0000,  0.0000,  0.0000)
  14 Li     3.582476    2.044045   15.004072    ( 0.0000,  0.0000,  0.0000)
  15 Li     1.788543    5.055274   15.841564    ( 0.0000,  0.0000,  0.0000)
  16 Li     3.506465    0.000182    3.465092    ( 0.0000,  0.0000,  0.0000)
  17 Li     1.753085    3.037125    3.465092    ( 0.0000,  0.0000,  0.0000)
  18 Li     7.013175    0.000182    3.465092    ( 0.0000,  0.0000,  0.0000)
  19 Li     5.259795    3.037125    3.465092    ( 0.0000,  0.0000,  0.0000)
  20 Li    -0.000262    2.024791    3.465092    ( 0.0000,  0.0000,  0.0000)
  21 Li    -1.753642    5.061734    3.465092    ( 0.0000,  0.0000,  0.0000)
  22 Li     3.506448    2.024791    3.465092    ( 0.0000,  0.0000,  0.0000)
  23 Li     1.753068    5.061734    3.465092    ( 0.0000,  0.0000,  0.0000)
  24 Li     1.753084    1.012487    5.431887    ( 0.0000,  0.0000,  0.0000)
  25 Li    -0.000296    4.049430    5.431887    ( 0.0000,  0.0000,  0.0000)
  26 Li     5.259794    1.012487    5.431887    ( 0.0000,  0.0000,  0.0000)
  27 Li     3.506414    4.049430    5.431887    ( 0.0000,  0.0000,  0.0000)
  28 Li     3.506429    0.000182    7.378027    ( 0.0000,  0.0000,  0.0000)
  29 Li     1.753049    3.037125    7.378027    ( 0.0000,  0.0000,  0.0000)
  30 Li     7.013139    0.000182    7.378027    ( 0.0000,  0.0000,  0.0000)
  31 Li     5.259759    3.037125    7.378027    ( 0.0000,  0.0000,  0.0000)
  32 Li    -0.000297    2.024791    7.378027    ( 0.0000,  0.0000,  0.0000)
  33 Li    -1.753677    5.061734    7.378027    ( 0.0000,  0.0000,  0.0000)
  34 Li     3.506413    2.024791    7.378027    ( 0.0000,  0.0000,  0.0000)
  35 Li     1.753033    5.061734    7.378027    ( 0.0000,  0.0000,  0.0000)
  36 Li     1.752840    1.013109    9.323987    ( 0.0000,  0.0000,  0.0000)
  37 Li    -0.000161    4.049736    9.354547    ( 0.0000,  0.0000,  0.0000)
  38 Li     5.259522    1.012352    9.354538    ( 0.0000,  0.0000,  0.0000)
  39 Li     3.505501    4.049819    9.341469    ( 0.0000,  0.0000,  0.0000)
  40 Li     3.506866    0.000277   11.309881    ( 0.0000,  0.0000,  0.0000)
  41 Li     1.751540    3.039353   11.267721    ( 0.0000,  0.0000,  0.0000)
  42 Li     7.010990    0.000816   11.267282    ( 0.0000,  0.0000,  0.0000)
  43 Li     5.259392    3.037761   11.361304    ( 0.0000,  0.0000,  0.0000)
  44 Li    -0.002290    2.026352   11.309709    ( 0.0000,  0.0000,  0.0000)
  45 Li    -1.753519    5.060867   11.267980    ( 0.0000,  0.0000,  0.0000)
  46 Li     3.507739    2.025570   11.268321    ( 0.0000,  0.0000,  0.0000)
  47 Li     1.752039    5.062690   11.359729    ( 0.0000,  0.0000,  0.0000)
  48 N      1.753084    1.012487    3.439048    ( 0.0000,  0.0000,  0.0000)
  49 N     -0.000296    4.049430    3.439048    ( 0.0000,  0.0000,  0.0000)
  50 N      5.259794    1.012487    3.439048    ( 0.0000,  0.0000,  0.0000)
  51 N      3.506414    4.049430    3.439048    ( 0.0000,  0.0000,  0.0000)
  52 N      1.753031    1.012517    7.360963    ( 0.0000,  0.0000,  0.0000)
  53 N     -0.000349    4.049460    7.360963    ( 0.0000,  0.0000,  0.0000)
  54 N      5.259741    1.012517    7.360963    ( 0.0000,  0.0000,  0.0000)
  55 N      3.506361    4.049460    7.360963    ( 0.0000,  0.0000,  0.0000)
  56 N      1.751960    1.012790   11.245172    ( 0.0000,  0.0000,  0.0000)
  57 N     -0.000676    4.050383   11.305147    ( 0.0000,  0.0000,  0.0000)
  58 N      5.259305    1.013008   11.305238    ( 0.0000,  0.0000,  0.0000)
  59 N      3.505790    4.050878   11.281358    ( 0.0000,  0.0000,  0.0000)
  60 N      1.790763    1.079001   15.233306    ( 0.0000,  0.0000,  0.0000)
  61 N      0.010394    4.033861   15.290047    ( 0.0000,  0.0000,  0.0000)
  62 N      5.237640    1.014115   15.291211    ( 0.0000,  0.0000,  0.0000)
  63 N      3.481969    4.009817   15.218967    ( 0.0000,  0.0000,  0.0000)
  64 Li     2.254984    1.852066   17.008911    ( 0.0000,  0.0000,  0.0000)

Unit cell:
           periodic     x           y           z      points  spacing
  1. axis:    yes    7.013420    0.000000    0.000000    40     0.1518
  2. axis:    yes   -3.506760    6.073886    0.000000    40     0.1518
  3. axis:    yes    0.000000    0.000000   29.936001   160     0.1871

  Lengths:   7.013420   7.013520  29.936001
  Angles:   90.000000  90.000000 120.000000

Effective grid spacing dv^(1/3) = 0.1708

                     log10-error:    total        iterations:
           time      wfs    density  energy       fermi  poisson
iter:   1  10:28:56  -3.66         -234.681342    2             
iter:   2  10:29:36  -4.80  -3.04  -234.682386    2             
iter:   3  10:30:16  -5.64  -3.01  -234.680319    2             
iter:   4  10:30:56  -5.17  -3.06  -234.681435    2             
iter:   5  10:31:35  -6.40  -3.24  -234.680582    2             
iter:   6  10:32:16  -5.58  -3.45  -234.680403    2             
iter:   7  10:32:56  -5.99  -3.71  -234.680443    2             
iter:   8  10:33:36  -6.90  -3.70  -234.680221    2             
iter:   9  10:34:16  -6.61  -3.68  -234.680306    2             
iter:  10  10:34:56  -7.07  -3.97  -234.680313    2             
iter:  11  10:35:36  -7.20  -4.06  -234.680455    2             

Converged after 11 iterations.

Dipole moment: (-2.461992, 1.384457, -11.378322) |e|*Ang

Energy contributions relative to reference atoms: (reference = -33644.147259)

Kinetic:       +256.550781
Potential:     -189.393129
External:        +0.000000
XC:            -300.512277
Entropy (-ST):   -0.075346
Local:           -1.288157
--------------------------
Free energy:   -234.718128
Extrapolated:  -234.680455

Fermi level: -0.27489

Showing only first 2 kpts
 Kpt  Band  Eigenvalues  Occupancy
  0    62     -0.53011    0.07952
  0    63     -0.08233    0.00167
  0    64     -0.02141    0.00050
  0    65      0.16027    0.00001

  1    62     -0.59606    0.15974
  1    63     -0.30934    0.10652
  1    64     -0.17871    0.02040
  1    65      0.34296    0.00000



Forces in eV/Ang:
  0 Li   -0.00007    0.00006   -0.04997
  1 Li   -0.00007    0.00005   -0.05007
  2 Li   -0.00008    0.00005   -0.05007
  3 Li   -0.00008    0.00005   -0.04996
  4 Li   -0.00174   -0.00380    0.27889
  5 Li   -0.05527    0.02037    0.00253
  6 Li    0.04618   -0.03232    0.00577
  7 Li    0.02437    0.04143   -0.02714
  8 Li    0.11354   -0.03917    0.01782
  9 Li    0.03308    0.09232   -0.28214
 10 Li   -0.07907    0.03750    0.19130
 11 Li   -0.05002   -0.07360    0.21901
 12 Li   -0.09465    0.08382    0.02882
 13 Li    0.07780   -0.04633    0.19201
 14 Li    0.06379    0.06864   -0.28574
 15 Li   -0.03355   -0.08352    0.20807
 16 Li    0.00012   -0.00018   -0.04177
 17 Li   -0.00008   -0.00004   -0.04193
 18 Li   -0.00011   -0.00007   -0.04195
 19 Li    0.00010   -0.00018   -0.04170
 20 Li   -0.00018    0.00015   -0.04177
 21 Li    0.00002   -0.00001   -0.04196
 22 Li    0.00003    0.00003   -0.04195
 23 Li   -0.00018    0.00011   -0.04168
 24 Li    0.00002    0.00008   -0.05461
 25 Li    0.00008   -0.00001   -0.04844
 26 Li   -0.00004   -0.00001   -0.04845
 27 Li   -0.00009   -0.00005   -0.05137
 28 Li    0.00524   -0.00308    0.00520
 29 Li   -0.00294    0.00478   -0.00012
 30 Li   -0.00544    0.00015    0.00079
 31 Li    0.00257   -0.00150    0.01055
 32 Li   -0.00578    0.00350    0.00527
 33 Li    0.00250   -0.00444    0.00144
 34 Li    0.00532    0.00030    0.00045
 35 Li   -0.00312    0.00184    0.00926
 36 Li   -0.00053   -0.00189   -0.00951
 37 Li   -0.00220    0.00040   -0.00646
 38 Li    0.00004    0.00152   -0.00620
 39 Li    0.00267    0.00055   -0.00683
 40 Li    0.01291   -0.00661    0.00900
 41 Li   -0.00265    0.00939    0.00581
 42 Li   -0.01186   -0.00046   -0.00299
 43 Li    0.00646   -0.00407    0.01642
 44 Li   -0.01209    0.00795    0.00790
 45 Li    0.00551   -0.00986   -0.00214
 46 Li    0.00884    0.00216    0.00608
 47 Li   -0.00638    0.00322    0.01307
 48 N    -0.00007    0.00037    0.08126
 49 N    -0.00020    0.00024    0.08945
 50 N    -0.00014    0.00023    0.08955
 51 N    -0.00025    0.00005    0.07815
 52 N    -0.00007    0.00023   -0.01617
 53 N     0.00024    0.00003    0.08063
 54 N    -0.00009   -0.00035    0.08081
 55 N    -0.00060    0.00009    0.04143
 56 N    -0.00024   -0.00130    0.08623
 57 N    -0.00171    0.00045    0.03557
 58 N     0.00050    0.00174    0.03665
 59 N     0.00082   -0.00152    0.01287
 60 N    -0.09506   -0.17057   -0.14129
 61 N    -0.16812    0.14075   -0.04932
 62 N     0.20930   -0.06449   -0.04795
 63 N     0.12119    0.21353   -0.07962
 64 Li   -0.11338   -0.18652   -0.39157

System changes: positions 

Initializing position-dependent things.

Density initialized from wave functions
                                         
                                         
                                         
                                         
                                         
                   Li                    
           Li N   Li      Li             
                       N                 
             Li  NLi  Li N               
              Li    Li Li   Li           
                                         
           Li N Li Li  N Li              
                  Li      Li             
             Li N    Li  N               
              Li    Li Li   Li           
                                         
           Li N Li Li  N Li              
                  Li      Li             
             Li N    Li  N               
              Li    Li Li   Li           
           Li      Li                    
              N Li     N Li              
             Li   Li Li   Li             
                N        N               
              Li    Li Li   Li           
                                         
                Li       Li              
                                         
                                         
                                         
                                         

Positions:
   0 Li     1.753189    1.012426    1.530029    ( 0.0000,  0.0000,  0.0000)
   1 Li    -0.000191    4.049369    1.530029    ( 0.0000,  0.0000,  0.0000)
   2 Li     5.259899    1.012426    1.530029    ( 0.0000,  0.0000,  0.0000)
   3 Li     3.506519    4.049369    1.530029    ( 0.0000,  0.0000,  0.0000)
   4 Li     1.751455    1.015273   13.266278    ( 0.0000,  0.0000,  0.0000)
   5 Li    -0.009424    4.054736   13.326917    ( 0.0000,  0.0000,  0.0000)
   6 Li     5.269273    1.004030   13.327428    ( 0.0000,  0.0000,  0.0000)
   7 Li     3.506872    4.057444   13.257179    ( 0.0000,  0.0000,  0.0000)
   8 Li     3.500842    0.010036   15.396569    ( 0.0000,  0.0000,  0.0000)
   9 Li     1.735626    3.127931   14.930781    ( 0.0000,  0.0000,  0.0000)
  10 Li     6.991088   -0.013137   15.183530    ( 0.0000,  0.0000,  0.0000)
  11 Li     5.193736    3.069382   15.866056    ( 0.0000,  0.0000,  0.0000)
  12 Li     0.011689    2.025450   15.401902    ( 0.0000,  0.0000,  0.0000)
  13 Li    -1.755983    5.038170   15.177547    ( 0.0000,  0.0000,  0.0000)
  14 Li     3.591802    2.056167   14.920059    ( 0.0000,  0.0000,  0.0000)
  15 Li     1.810274    5.022753   15.872944    ( 0.0000,  0.0000,  0.0000)
  16 Li     3.506465    0.000182    3.465092    ( 0.0000,  0.0000,  0.0000)
  17 Li     1.753085    3.037125    3.465092    ( 0.0000,  0.0000,  0.0000)
  18 Li     7.013175    0.000182    3.465092    ( 0.0000,  0.0000,  0.0000)
  19 Li     5.259795    3.037125    3.465092    ( 0.0000,  0.0000,  0.0000)
  20 Li    -0.000262    2.024791    3.465092    ( 0.0000,  0.0000,  0.0000)
  21 Li    -1.753642    5.061734    3.465092    ( 0.0000,  0.0000,  0.0000)
  22 Li     3.506448    2.024791    3.465092    ( 0.0000,  0.0000,  0.0000)
  23 Li     1.753068    5.061734    3.465092    ( 0.0000,  0.0000,  0.0000)
  24 Li     1.753084    1.012487    5.431887    ( 0.0000,  0.0000,  0.0000)
  25 Li    -0.000296    4.049430    5.431887    ( 0.0000,  0.0000,  0.0000)
  26 Li     5.259794    1.012487    5.431887    ( 0.0000,  0.0000,  0.0000)
  27 Li     3.506414    4.049430    5.431887    ( 0.0000,  0.0000,  0.0000)
  28 Li     3.506429    0.000182    7.378027    ( 0.0000,  0.0000,  0.0000)
  29 Li     1.753049    3.037125    7.378027    ( 0.0000,  0.0000,  0.0000)
  30 Li     7.013139    0.000182    7.378027    ( 0.0000,  0.0000,  0.0000)
  31 Li     5.259759    3.037125    7.378027    ( 0.0000,  0.0000,  0.0000)
  32 Li    -0.000297    2.024791    7.378027    ( 0.0000,  0.0000,  0.0000)
  33 Li    -1.753677    5.061734    7.378027    ( 0.0000,  0.0000,  0.0000)
  34 Li     3.506413    2.024791    7.378027    ( 0.0000,  0.0000,  0.0000)
  35 Li     1.753033    5.061734    7.378027    ( 0.0000,  0.0000,  0.0000)
  36 Li     1.752577    1.012442    9.322243    ( 0.0000,  0.0000,  0.0000)
  37 Li    -0.000809    4.049915    9.354105    ( 0.0000,  0.0000,  0.0000)
  38 Li     5.259668    1.012611    9.354132    ( 0.0000,  0.0000,  0.0000)
  39 Li     3.506236    4.050188    9.339273    ( 0.0000,  0.0000,  0.0000)
  40 Li     3.508476   -0.000145   11.314529    ( 0.0000,  0.0000,  0.0000)
  41 Li     1.751219    3.040548   11.269572    ( 0.0000,  0.0000,  0.0000)
  42 Li     7.009238    0.000868   11.266531    ( 0.0000,  0.0000,  0.0000)
  43 Li     5.259798    3.037075   11.362440    ( 0.0000,  0.0000,  0.0000)
  44 Li    -0.003401    2.027549   11.314141    ( 0.0000,  0.0000,  0.0000)
  45 Li    -1.752625    5.059498   11.267553    ( 0.0000,  0.0000,  0.0000)
  46 Li     3.508783    2.025874   11.270362    ( 0.0000,  0.0000,  0.0000)
  47 Li     1.751241    5.062644   11.359789    ( 0.0000,  0.0000,  0.0000)
  48 N      1.753084    1.012487    3.439048    ( 0.0000,  0.0000,  0.0000)
  49 N     -0.000296    4.049430    3.439048    ( 0.0000,  0.0000,  0.0000)
  50 N      5.259794    1.012487    3.439048    ( 0.0000,  0.0000,  0.0000)
  51 N      3.506414    4.049430    3.439048    ( 0.0000,  0.0000,  0.0000)
  52 N      1.753031    1.012517    7.360963    ( 0.0000,  0.0000,  0.0000)
  53 N     -0.000349    4.049460    7.360963    ( 0.0000,  0.0000,  0.0000)
  54 N      5.259741    1.012517    7.360963    ( 0.0000,  0.0000,  0.0000)
  55 N      3.506361    4.049460    7.360963    ( 0.0000,  0.0000,  0.0000)
  56 N      1.751464    1.011933   11.259456    ( 0.0000,  0.0000,  0.0000)
  57 N     -0.001032    4.050632   11.309490    ( 0.0000,  0.0000,  0.0000)
  58 N      5.259608    1.013130   11.309814    ( 0.0000,  0.0000,  0.0000)
  59 N      3.506254    4.051378   11.281535    ( 0.0000,  0.0000,  0.0000)
  60 N      1.800227    1.092904   15.279415    ( 0.0000,  0.0000,  0.0000)
  61 N     -0.006628    4.044242   15.283167    ( 0.0000,  0.0000,  0.0000)
  62 N      5.255781    1.005170   15.285335    ( 0.0000,  0.0000,  0.0000)
  63 N      3.487047    4.019512   15.203931    ( 0.0000,  0.0000,  0.0000)
  64 Li     2.259148    1.860000   16.903023    ( 0.0000,  0.0000,  0.0000)

Unit cell:
           periodic     x           y           z      points  spacing
  1. axis:    yes    7.013420    0.000000    0.000000    40     0.1518
  2. axis:    yes   -3.506760    6.073886    0.000000    40     0.1518
  3. axis:    yes    0.000000    0.000000   29.936001   160     0.1871

  Lengths:   7.013420   7.013520  29.936001
  Angles:   90.000000  90.000000 120.000000

Effective grid spacing dv^(1/3) = 0.1708

                     log10-error:    total        iterations:
           time      wfs    density  energy       fermi  poisson
iter:   1  10:37:50  -1.85         -234.964344    4             
iter:   2  10:38:30  -2.61  -1.75  -235.376385    3             
iter:   3  10:39:10  -3.64  -1.71  -234.861815    4             
iter:   4  10:39:51  -3.98  -1.99  -234.782247    4             
iter:   5  10:40:30  -3.77  -2.17  -234.746966    3             
iter:   6  10:41:11  -4.60  -2.38  -234.777923    3             
iter:   7  10:41:51  -3.92  -2.24  -234.804907    4             
iter:   8  10:42:31  -4.35  -1.99  -234.739861    3             
iter:   9  10:43:11  -4.88  -2.78  -234.739469    2             
iter:  10  10:43:52  -5.01  -3.03  -234.739005    2             
iter:  11  10:44:33  -5.46  -3.01  -234.737603    3             
iter:  12  10:45:13  -5.35  -2.81  -234.737936    2             
iter:  13  10:45:53  -6.15  -3.09  -234.738425    2             
iter:  14  10:46:34  -6.03  -3.31  -234.739223    2             
iter:  15  10:47:15  -6.14  -3.55  -234.739175    2             
iter:  16  10:47:56  -7.33  -3.65  -234.739300    2             
iter:  17  10:48:36  -6.21  -3.60  -234.739017    2             
iter:  18  10:49:16  -7.61  -4.00  -234.738863    2             

Converged after 18 iterations.

Dipole moment: (-1.905367, 1.199976, -11.398229) |e|*Ang

Energy contributions relative to reference atoms: (reference = -33644.147259)

Kinetic:       +257.381576
Potential:     -190.065249
External:        +0.000000
XC:            -300.730092
Entropy (-ST):   -0.075005
Local:           -1.287596
--------------------------
Free energy:   -234.776366
Extrapolated:  -234.738863

Fermi level: -0.28894

Showing only first 2 kpts
 Kpt  Band  Eigenvalues  Occupancy
  0    62     -0.55591    0.07962
  0    63     -0.12132    0.00270
  0    64     -0.01718    0.00035
  0    65      0.13584    0.00002

  1    62     -0.62799    0.15982
  1    63     -0.32812    0.10983
  1    64     -0.19649    0.02176
  1    65      0.32399    0.00000



Forces in eV/Ang:
  0 Li   -0.00007    0.00006   -0.05035
  1 Li   -0.00007    0.00005   -0.05037
  2 Li   -0.00007    0.00005   -0.05037
  3 Li   -0.00008    0.00005   -0.05024
  4 Li   -0.05956   -0.10076    0.01740
  5 Li   -0.12755    0.06046   -0.08271
  6 Li    0.12110   -0.07811   -0.08006
  7 Li    0.09077    0.16061   -0.06110
  8 Li    0.30842   -0.09782    0.05772
  9 Li   -0.08445    0.13661   -0.09911
 10 Li   -0.06347    0.03544    0.10477
 11 Li    0.10625   -0.16264    0.16325
 12 Li   -0.24125    0.22042    0.06469
 13 Li    0.06578   -0.04048    0.10687
 14 Li    0.16507   -0.00435   -0.09358
 15 Li   -0.18887    0.00690    0.15674
 16 Li    0.00017   -0.00022   -0.04283
 17 Li   -0.00010    0.00002   -0.04308
 18 Li   -0.00016   -0.00010   -0.04298
 19 Li    0.00011   -0.00017   -0.04271
 20 Li   -0.00024    0.00017   -0.04283
 21 Li    0.00003   -0.00006   -0.04298
 22 Li    0.00009    0.00005   -0.04308
 23 Li   -0.00018    0.00013   -0.04271
 24 Li   -0.00014   -0.00021   -0.05743
 25 Li   -0.00011    0.00007   -0.05076
 26 Li    0.00012   -0.00008   -0.05077
 27 Li    0.00009    0.00022   -0.05402
 28 Li    0.00623   -0.00367    0.00420
 29 Li   -0.00330    0.00573   -0.00013
 30 Li   -0.00647   -0.00001   -0.00194
 31 Li    0.00298   -0.00166    0.00883
 32 Li   -0.00663    0.00401    0.00428
 33 Li    0.00282   -0.00525   -0.00181
 34 Li    0.00611    0.00044   -0.00011
 35 Li   -0.00340    0.00204    0.00855
 36 Li    0.00245    0.00352    0.07288
 37 Li    0.00171   -0.00158    0.01457
 38 Li   -0.00327    0.00318    0.01527
 39 Li   -0.00106   -0.00495    0.01291
 40 Li   -0.01100    0.00989    0.03612
 41 Li   -0.00072   -0.01581    0.01973
 42 Li    0.01417    0.01049    0.02339
 43 Li    0.00163   -0.00536    0.02082
 44 Li    0.01387   -0.00482    0.03458
 45 Li    0.00178    0.01749    0.02278
 46 Li   -0.01311   -0.00849    0.01873
 47 Li   -0.00562   -0.00080    0.02028
 48 N    -0.00018    0.00018    0.09886
 49 N    -0.00003    0.00012    0.09875
 50 N    -0.00032    0.00028    0.09906
 51 N    -0.00037   -0.00013    0.08735
 52 N    -0.00085   -0.00129   -0.01045
 53 N    -0.00088    0.00066    0.08550
 54 N     0.00082   -0.00046    0.08593
 55 N     0.00074    0.00172    0.03947
 56 N     0.00867    0.01467    0.08250
 57 N     0.00509   -0.00521    0.01127
 58 N    -0.00749    0.00228    0.01261
 59 N    -0.00802   -0.01401   -0.01060
 60 N    -0.21328   -0.34931   -0.79526
 61 N     0.00485    0.02811    0.01638
 62 N     0.02090    0.02646    0.01150
 63 N     0.04531    0.07385   -0.05202
 64 Li    0.04678    0.07989    0.22964

System changes: positions 

Initializing position-dependent things.

Density initialized from wave functions
                                         
                                         
                                         
                                         
                                         
                   Li                    
           Li N   Li      Li             
                       N                 
             Li  NLi  Li N               
              Li    Li Li   Li           
                                         
           Li N Li Li  N Li              
                  Li      Li             
             Li N    Li  N               
              Li    Li Li   Li           
                                         
           Li N Li Li  N Li              
                  Li      Li             
             Li N    Li  N               
              Li    Li Li   Li           
           Li      Li                    
              N Li     N Li              
             Li   Li Li   Li             
                N        N               
              Li    Li Li   Li           
                                         
                Li       Li              
                                         
                                         
                                         
                                         

Positions:
   0 Li     1.753189    1.012426    1.530029    ( 0.0000,  0.0000,  0.0000)
   1 Li    -0.000191    4.049369    1.530029    ( 0.0000,  0.0000,  0.0000)
   2 Li     5.259899    1.012426    1.530029    ( 0.0000,  0.0000,  0.0000)
   3 Li     3.506519    4.049369    1.530029    ( 0.0000,  0.0000,  0.0000)
   4 Li     1.750499    1.013659   13.280871    ( 0.0000,  0.0000,  0.0000)
   5 Li    -0.014000    4.056612   13.326670    ( 0.0000,  0.0000,  0.0000)
   6 Li     5.273304    1.001269   13.327374    ( 0.0000,  0.0000,  0.0000)
   7 Li     3.509321    4.061725   13.254572    ( 0.0000,  0.0000,  0.0000)
   8 Li     3.507580    0.009162   15.401595    ( 0.0000,  0.0000,  0.0000)
   9 Li     1.735862    3.133761   14.911971    ( 0.0000,  0.0000,  0.0000)
  10 Li     6.987902   -0.010909   15.195215    ( 0.0000,  0.0000,  0.0000)
  11 Li     5.189868    3.064836   15.875943    ( 0.0000,  0.0000,  0.0000)
  12 Li     0.007453    2.031063   15.407629    ( 0.0000,  0.0000,  0.0000)
  13 Li    -1.752181    5.036654   15.189227    ( 0.0000,  0.0000,  0.0000)
  14 Li     3.596797    2.059018   14.900961    ( 0.0000,  0.0000,  0.0000)
  15 Li     1.808467    5.017015   15.882296    ( 0.0000,  0.0000,  0.0000)
  16 Li     3.506465    0.000182    3.465092    ( 0.0000,  0.0000,  0.0000)
  17 Li     1.753085    3.037125    3.465092    ( 0.0000,  0.0000,  0.0000)
  18 Li     7.013175    0.000182    3.465092    ( 0.0000,  0.0000,  0.0000)
  19 Li     5.259795    3.037125    3.465092    ( 0.0000,  0.0000,  0.0000)
  20 Li    -0.000262    2.024791    3.465092    ( 0.0000,  0.0000,  0.0000)
  21 Li    -1.753642    5.061734    3.465092    ( 0.0000,  0.0000,  0.0000)
  22 Li     3.506448    2.024791    3.465092    ( 0.0000,  0.0000,  0.0000)
  23 Li     1.753068    5.061734    3.465092    ( 0.0000,  0.0000,  0.0000)
  24 Li     1.753084    1.012487    5.431887    ( 0.0000,  0.0000,  0.0000)
  25 Li    -0.000296    4.049430    5.431887    ( 0.0000,  0.0000,  0.0000)
  26 Li     5.259794    1.012487    5.431887    ( 0.0000,  0.0000,  0.0000)
  27 Li     3.506414    4.049430    5.431887    ( 0.0000,  0.0000,  0.0000)
  28 Li     3.506429    0.000182    7.378027    ( 0.0000,  0.0000,  0.0000)
  29 Li     1.753049    3.037125    7.378027    ( 0.0000,  0.0000,  0.0000)
  30 Li     7.013139    0.000182    7.378027    ( 0.0000,  0.0000,  0.0000)
  31 Li     5.259759    3.037125    7.378027    ( 0.0000,  0.0000,  0.0000)
  32 Li    -0.000297    2.024791    7.378027    ( 0.0000,  0.0000,  0.0000)
  33 Li    -1.753677    5.061734    7.378027    ( 0.0000,  0.0000,  0.0000)
  34 Li     3.506413    2.024791    7.378027    ( 0.0000,  0.0000,  0.0000)
  35 Li     1.753033    5.061734    7.378027    ( 0.0000,  0.0000,  0.0000)
  36 Li     1.752560    1.012354    9.322824    ( 0.0000,  0.0000,  0.0000)
  37 Li    -0.000922    4.049928    9.354033    ( 0.0000,  0.0000,  0.0000)
  38 Li     5.259646    1.012722    9.354081    ( 0.0000,  0.0000,  0.0000)
  39 Li     3.506381    4.050186    9.338903    ( 0.0000,  0.0000,  0.0000)
  40 Li     3.508911   -0.000277   11.316090    ( 0.0000,  0.0000,  0.0000)
  41 Li     1.751080    3.040759   11.270254    ( 0.0000,  0.0000,  0.0000)
  42 Li     7.008867    0.001005   11.266691    ( 0.0000,  0.0000,  0.0000)
  43 Li     5.260081    3.036798   11.363128    ( 0.0000,  0.0000,  0.0000)
  44 Li    -0.003733    2.027864   11.315623    ( 0.0000,  0.0000,  0.0000)
  45 Li    -1.752328    5.059276   11.267767    ( 0.0000,  0.0000,  0.0000)
  46 Li     3.509003    2.025853   11.271059    ( 0.0000,  0.0000,  0.0000)
  47 Li     1.750867    5.062742   11.360251    ( 0.0000,  0.0000,  0.0000)
  48 N      1.753084    1.012487    3.439048    ( 0.0000,  0.0000,  0.0000)
  49 N     -0.000296    4.049430    3.439048    ( 0.0000,  0.0000,  0.0000)
  50 N      5.259794    1.012487    3.439048    ( 0.0000,  0.0000,  0.0000)
  51 N      3.506414    4.049430    3.439048    ( 0.0000,  0.0000,  0.0000)
  52 N      1.753031    1.012517    7.360963    ( 0.0000,  0.0000,  0.0000)
  53 N     -0.000349    4.049460    7.360963    ( 0.0000,  0.0000,  0.0000)
  54 N      5.259741    1.012517    7.360963    ( 0.0000,  0.0000,  0.0000)
  55 N      3.506361    4.049460    7.360963    ( 0.0000,  0.0000,  0.0000)
  56 N      1.751390    1.011785   11.265120    ( 0.0000,  0.0000,  0.0000)
  57 N     -0.001171    4.050662   11.311172    ( 0.0000,  0.0000,  0.0000)
  58 N      5.259669    1.013163   11.311578    ( 0.0000,  0.0000,  0.0000)
  59 N      3.506342    4.051403   11.281758    ( 0.0000,  0.0000,  0.0000)
  60 N      1.794766    1.083329   15.268329    ( 0.0000,  0.0000,  0.0000)
  61 N     -0.013842    4.050387   15.280960    ( 0.0000,  0.0000,  0.0000)
  62 N      5.264861    1.002484   15.283229    ( 0.0000,  0.0000,  0.0000)
  63 N      3.492185    4.028513   15.199532    ( 0.0000,  0.0000,  0.0000)
  64 Li     2.261100    1.863501   16.884779    ( 0.0000,  0.0000,  0.0000)

Unit cell:
           periodic     x           y           z      points  spacing
  1. axis:    yes    7.013420    0.000000    0.000000    40     0.1518
  2. axis:    yes   -3.506760    6.073886    0.000000    40     0.1518
  3. axis:    yes    0.000000    0.000000   29.936001   160     0.1871

  Lengths:   7.013420   7.013520  29.936001
  Angles:   90.000000  90.000000 120.000000

Effective grid spacing dv^(1/3) = 0.1708

                     log10-error:    total        iterations:
           time      wfs    density  energy       fermi  poisson
iter:   1  10:52:29  -2.95         -234.767099    3             
iter:   2  10:53:08  -4.03  -2.57  -234.785123    3             
iter:   3  10:53:49  -4.85  -2.41  -234.769374    2             
iter:   4  10:54:29  -4.51  -2.72  -234.763712    3             
iter:   5  10:55:11  -4.67  -2.86  -234.764728    2             
iter:   6  10:55:51  -5.31  -3.08  -234.762952    3             
iter:   7  10:56:31  -5.61  -2.80  -234.765573    2             
iter:   8  10:57:12  -5.80  -3.19  -234.764351    2             
iter:   9  10:57:52  -5.94  -3.44  -234.764328    2             
iter:  10  10:58:33  -6.47  -3.84  -234.764310    2             
iter:  11  10:59:14  -7.23  -3.93  -234.764311    2             
iter:  12  10:59:54  -7.40  -4.05  -234.764293    2             

Converged after 12 iterations.

Dipole moment: (-1.739612, 1.154708, -11.397505) |e|*Ang

Energy contributions relative to reference atoms: (reference = -33644.147259)

Kinetic:       +257.281331
Potential:     -190.015726
External:        +0.000000
XC:            -300.703759
Entropy (-ST):   -0.074681
Local:           -1.288799
--------------------------
Free energy:   -234.801634
Extrapolated:  -234.764293

Fermi level: -0.28925

Showing only first 2 kpts
 Kpt  Band  Eigenvalues  Occupancy
  0    62     -0.56465    0.07968
  0    63     -0.11945    0.00259
  0    64     -0.01836    0.00035
  0    65      0.13538    0.00002

  1    62     -0.63733    0.15985
  1    63     -0.32895    0.11019
  1    64     -0.19607    0.02148
  1    65      0.32370    0.00000



Forces in eV/Ang:
  0 Li   -0.00007    0.00005   -0.05086
  1 Li   -0.00008    0.00005   -0.05088
  2 Li   -0.00007    0.00005   -0.05088
  3 Li   -0.00007    0.00005   -0.05076
  4 Li   -0.07744   -0.13057   -0.10064
  5 Li   -0.14172    0.06765   -0.08588
  6 Li    0.13521   -0.08725   -0.08427
  7 Li    0.10519    0.18567   -0.06030
  8 Li    0.27717   -0.06308    0.02860
  9 Li   -0.09863    0.12196   -0.06941
 10 Li   -0.01153    0.01876    0.06995
 11 Li    0.09438   -0.14336    0.14606
 12 Li   -0.19288    0.20776    0.03427
 13 Li    0.02219   -0.00674    0.07247
 14 Li    0.16023   -0.02045   -0.06188
 15 Li   -0.16913    0.00822    0.14127
 16 Li    0.00018   -0.00021   -0.04327
 17 Li   -0.00009    0.00003   -0.04348
 18 Li   -0.00016   -0.00011   -0.04345
 19 Li    0.00010   -0.00017   -0.04313
 20 Li   -0.00024    0.00018   -0.04328
 21 Li    0.00002   -0.00007   -0.04344
 22 Li    0.00010    0.00007   -0.04348
 23 Li   -0.00018    0.00012   -0.04314
 24 Li   -0.00006   -0.00008   -0.05762
 25 Li   -0.00005    0.00003   -0.05109
 26 Li    0.00004   -0.00004   -0.05110
 27 Li    0.00003    0.00009   -0.05440
 28 Li    0.00631   -0.00359    0.00453
 29 Li   -0.00319    0.00574    0.00016
 30 Li   -0.00657   -0.00006   -0.00140
 31 Li    0.00290   -0.00171    0.00892
 32 Li   -0.00657    0.00411    0.00461
 33 Li    0.00283   -0.00532   -0.00143
 34 Li    0.00603    0.00053    0.00003
 35 Li   -0.00339    0.00193    0.00894
 36 Li    0.00233    0.00345    0.09187
 37 Li    0.00184   -0.00157    0.02188
 38 Li   -0.00316    0.00298    0.02265
 39 Li   -0.00119   -0.00477    0.01790
 40 Li   -0.02013    0.01511    0.04453
 41 Li    0.00032   -0.02286    0.02804
 42 Li    0.02293    0.01231    0.02862
 43 Li   -0.00197   -0.00387    0.01942
 44 Li    0.02307   -0.01026    0.04286
 45 Li   -0.00115    0.02579    0.02777
 46 Li   -0.01958   -0.01094    0.02694
 47 Li   -0.00277   -0.00296    0.01925
 48 N    -0.00022    0.00014    0.09249
 49 N    -0.00006    0.00015    0.09328
 50 N    -0.00028    0.00027    0.09366
 51 N    -0.00029    0.00004    0.08202
 52 N    -0.00033   -0.00049   -0.01060
 53 N    -0.00050    0.00040    0.08234
 54 N     0.00030   -0.00006    0.08286
 55 N     0.00040    0.00086    0.03383
 56 N     0.00828    0.01455    0.05922
 57 N     0.00396   -0.00436   -0.00351
 58 N    -0.00588   -0.00003   -0.00220
 59 N    -0.00691   -0.01034   -0.02737
 60 N    -0.12192   -0.18969   -0.65210
 61 N     0.11130   -0.05755    0.05145
 62 N    -0.10765    0.07026    0.04675
 63 N    -0.03409   -0.06713   -0.01597
 64 Li    0.05156    0.08794    0.23631

System changes: positions 

Initializing position-dependent things.

Density initialized from wave functions
                                         
                                         
                                         
                                         
                                         
                   Li                    
           Li N   Li      Li             
                       N                 
             Li N Li  Li N               
              Li    Li Li   Li           
                                         
           Li N Li Li  N Li              
                  Li      Li             
             Li N    Li  N               
              Li    Li Li   Li           
                                         
           Li N Li Li  N Li              
                  Li      Li             
             Li N    Li  N               
              Li    Li Li   Li           
           Li      Li                    
              N Li     N Li              
             Li   Li Li   Li             
                N        N               
              Li    Li Li   Li           
                                         
                Li       Li              
                                         
                                         
                                         
                                         

Positions:
   0 Li     1.753189    1.012426    1.530029    ( 0.0000,  0.0000,  0.0000)
   1 Li    -0.000191    4.049369    1.530029    ( 0.0000,  0.0000,  0.0000)
   2 Li     5.259899    1.012426    1.530029    ( 0.0000,  0.0000,  0.0000)
   3 Li     3.506519    4.049369    1.530029    ( 0.0000,  0.0000,  0.0000)
   4 Li     1.747681    1.008910   13.295203    ( 0.0000,  0.0000,  0.0000)
   5 Li    -0.022318    4.060233   13.324468    ( 0.0000,  0.0000,  0.0000)
   6 Li     5.280863    0.996202   13.325424    ( 0.0000,  0.0000,  0.0000)
   7 Li     3.514406    4.070662   13.250324    ( 0.0000,  0.0000,  0.0000)
   8 Li     3.521517    0.006485   15.408180    ( 0.0000,  0.0000,  0.0000)
   9 Li     1.734033    3.142853   14.889453    ( 0.0000,  0.0000,  0.0000)
  10 Li     6.983882   -0.007871   15.209805    ( 0.0000,  0.0000,  0.0000)
  11 Li     5.187970    3.056303   15.889910    ( 0.0000,  0.0000,  0.0000)
  12 Li    -0.001987    2.042041   15.415128    ( 0.0000,  0.0000,  0.0000)
  13 Li    -1.747214    5.034701   15.203866    ( 0.0000,  0.0000,  0.0000)
  14 Li     3.605772    2.061752   14.878289    ( 0.0000,  0.0000,  0.0000)
  15 Li     1.802320    5.010914   15.895574    ( 0.0000,  0.0000,  0.0000)
  16 Li     3.506465    0.000182    3.465092    ( 0.0000,  0.0000,  0.0000)
  17 Li     1.753085    3.037125    3.465092    ( 0.0000,  0.0000,  0.0000)
  18 Li     7.013175    0.000182    3.465092    ( 0.0000,  0.0000,  0.0000)
  19 Li     5.259795    3.037125    3.465092    ( 0.0000,  0.0000,  0.0000)
  20 Li    -0.000262    2.024791    3.465092    ( 0.0000,  0.0000,  0.0000)
  21 Li    -1.753642    5.061734    3.465092    ( 0.0000,  0.0000,  0.0000)
  22 Li     3.506448    2.024791    3.465092    ( 0.0000,  0.0000,  0.0000)
  23 Li     1.753068    5.061734    3.465092    ( 0.0000,  0.0000,  0.0000)
  24 Li     1.753084    1.012487    5.431887    ( 0.0000,  0.0000,  0.0000)
  25 Li    -0.000296    4.049430    5.431887    ( 0.0000,  0.0000,  0.0000)
  26 Li     5.259794    1.012487    5.431887    ( 0.0000,  0.0000,  0.0000)
  27 Li     3.506414    4.049430    5.431887    ( 0.0000,  0.0000,  0.0000)
  28 Li     3.506429    0.000182    7.378027    ( 0.0000,  0.0000,  0.0000)
  29 Li     1.753049    3.037125    7.378027    ( 0.0000,  0.0000,  0.0000)
  30 Li     7.013139    0.000182    7.378027    ( 0.0000,  0.0000,  0.0000)
  31 Li     5.259759    3.037125    7.378027    ( 0.0000,  0.0000,  0.0000)
  32 Li    -0.000297    2.024791    7.378027    ( 0.0000,  0.0000,  0.0000)
  33 Li    -1.753677    5.061734    7.378027    ( 0.0000,  0.0000,  0.0000)
  34 Li     3.506413    2.024791    7.378027    ( 0.0000,  0.0000,  0.0000)
  35 Li     1.753033    5.061734    7.378027    ( 0.0000,  0.0000,  0.0000)
  36 Li     1.752586    1.012321    9.325480    ( 0.0000,  0.0000,  0.0000)
  37 Li    -0.001015    4.049910    9.354412    ( 0.0000,  0.0000,  0.0000)
  38 Li     5.259557    1.012909    9.354501    ( 0.0000,  0.0000,  0.0000)
  39 Li     3.506522    4.050090    9.338860    ( 0.0000,  0.0000,  0.0000)
  40 Li     3.508976   -0.000119   11.318868    ( 0.0000,  0.0000,  0.0000)
  41 Li     1.750925    3.040518   11.271680    ( 0.0000,  0.0000,  0.0000)
  42 Li     7.008938    0.001418   11.267495    ( 0.0000,  0.0000,  0.0000)
  43 Li     5.260370    3.036407   11.364319    ( 0.0000,  0.0000,  0.0000)
  44 Li    -0.003630    2.027996   11.318275    ( 0.0000,  0.0000,  0.0000)
  45 Li    -1.752022    5.059574   11.268611    ( 0.0000,  0.0000,  0.0000)
  46 Li     3.508844    2.025595   11.272478    ( 0.0000,  0.0000,  0.0000)
  47 Li     1.750383    5.062802   11.361186    ( 0.0000,  0.0000,  0.0000)
  48 N      1.753084    1.012487    3.439048    ( 0.0000,  0.0000,  0.0000)
  49 N     -0.000296    4.049430    3.439048    ( 0.0000,  0.0000,  0.0000)
  50 N      5.259794    1.012487    3.439048    ( 0.0000,  0.0000,  0.0000)
[...]
  2. axis:    yes   -3.506760    6.073886    0.000000    40     0.1518
  3. axis:    yes    0.000000    0.000000   29.936001   160     0.1871

  Lengths:   7.013420   7.013520  29.936001
  Angles:   90.000000  90.000000 120.000000

Effective grid spacing dv^(1/3) = 0.1708

                     log10-error:    total        iterations:
           time      wfs    density  energy       fermi  poisson
iter:   1  16:54:44  -4.50         -235.027782    2             
iter:   2  16:55:25  -5.09  -2.83  -235.025649    3             
iter:   3  16:56:04  -5.53  -2.45  -235.023451    3             
iter:   4  16:56:44  -6.07  -3.33  -235.022247    2             
iter:   5  16:57:25  -6.50  -3.52  -235.022785    2             
iter:   6  16:58:04  -6.69  -3.88  -235.022748    2             
iter:   7  16:58:45  -6.68  -4.12  -235.022477    2             
iter:   8  16:59:25  -7.43  -3.80  -235.022617    2             
iter:   9  17:00:05  -7.37  -4.13  -235.022662    2             

Converged after 9 iterations.

Dipole moment: (-0.532969, 1.285053, -11.409518) |e|*Ang

Energy contributions relative to reference atoms: (reference = -33644.147259)

Kinetic:       +252.797225
Potential:     -186.984568
External:        +0.000000
XC:            -299.513130
Entropy (-ST):   -0.075591
Local:           -1.284394
--------------------------
Free energy:   -235.060457
Extrapolated:  -235.022662

Fermi level: -0.26218

Showing only first 2 kpts
 Kpt  Band  Eigenvalues  Occupancy
  0    62     -0.66152    0.07997
  0    63     -0.06078    0.00140
  0    64     -0.03186    0.00079
  0    65      0.13422    0.00003

  1    62     -0.67867    0.15996
  1    63     -0.31511    0.11879
  1    64     -0.15397    0.01648
  1    65      0.33091    0.00000



Forces in eV/Ang:
  0 Li   -0.00006    0.00007   -0.05674
  1 Li   -0.00006    0.00004   -0.05691
  2 Li   -0.00009    0.00006   -0.05691
  3 Li   -0.00009    0.00003   -0.05707
  4 Li   -0.01489   -0.02639   -0.00697
  5 Li   -0.02243    0.00524   -0.00656
  6 Li    0.01542   -0.01743   -0.00751
  7 Li    0.01239    0.02291    0.00097
  8 Li    0.01029    0.00045    0.00326
  9 Li   -0.01527    0.00431   -0.04625
 10 Li   -0.00334   -0.00217   -0.00240
 11 Li   -0.01101   -0.01797   -0.00472
 12 Li   -0.00383    0.00873    0.00261
 13 Li   -0.00140   -0.00435   -0.00048
 14 Li    0.01133   -0.00939   -0.04734
 15 Li   -0.01102   -0.01924   -0.00404
 16 Li    0.00003   -0.00010   -0.04692
 17 Li   -0.00017   -0.00023   -0.04660
 18 Li   -0.00001    0.00012   -0.04761
 19 Li    0.00018   -0.00028   -0.04700
 20 Li   -0.00007    0.00010   -0.04695
 21 Li    0.00014    0.00017   -0.04761
 22 Li   -0.00008   -0.00014   -0.04660
 23 Li   -0.00030    0.00014   -0.04697
 24 Li    0.00072    0.00121   -0.06876
 25 Li    0.00072   -0.00030   -0.06126
 26 Li   -0.00067    0.00040   -0.06133
 27 Li   -0.00065   -0.00106   -0.05998
 28 Li    0.00092   -0.00911   -0.00089
 29 Li   -0.00509    0.00621   -0.02762
 30 Li   -0.00239   -0.00511    0.02824
 31 Li    0.00392    0.00573    0.01175
 32 Li   -0.00903   -0.00312    0.00017
 33 Li   -0.00386   -0.00451    0.02748
 34 Li    0.00755   -0.00052   -0.02849
 35 Li    0.00279    0.00645    0.00942
 36 Li    0.01148    0.01924   -0.02703
 37 Li    0.01025   -0.00813    0.00945
 38 Li   -0.01262    0.00471    0.00858
 39 Li   -0.01132   -0.01954    0.02117
 40 Li    0.00601   -0.00214   -0.00345
 41 Li   -0.00091    0.00480    0.00732
 42 Li   -0.00827   -0.00662   -0.01278
 43 Li   -0.00393   -0.00579   -0.00920
 44 Li   -0.00527    0.00440   -0.00957
 45 Li   -0.00166   -0.01101   -0.01660
 46 Li    0.00507    0.00189   -0.00001
 47 Li   -0.00293   -0.00594   -0.01445
 48 N    -0.00059   -0.00048    0.10463
 49 N    -0.00057    0.00044    0.11204
 50 N     0.00025    0.00001    0.11194
 51 N     0.00041    0.00120    0.11857
 52 N     0.01024    0.01720   -0.02392
 53 N     0.01267   -0.00653    0.11786
 54 N    -0.01304    0.00668    0.11658
 55 N    -0.01364   -0.02270    0.17744
 56 N    -0.00109   -0.00174    0.02191
 57 N    -0.00293    0.00083    0.01324
 58 N     0.00240   -0.00213    0.01279
 59 N     0.00228    0.00389    0.02535
 60 N     0.00048    0.00312    0.01679
 61 N     0.00503   -0.01976    0.01700
 62 N    -0.01837   -0.00659    0.01663
 63 N    -0.00460   -0.00875    0.02550
 64 Li    0.06937    0.12070   -0.02847

System changes: positions 

Initializing position-dependent things.

Density initialized from wave functions
                                         
                                         
                                         
                                         
                   Li                    
          Li                             
              N   Li  N   Li             
             Li   Li                     
              LiN     LiiN               
                    Li      Li           
           Li      Li    Li              
              N LiLi   N  Li             
             Li      Li                  
              LiN      LiN               
                    Li      Li           
           Li   Li Li    Li              
              N   Li   N  Li             
             Li      Li                  
              LiN   Li LiN  Li           
                                         
           Li N Li Li  N Li              
                  Li      Li             
             Li N    Li  N               
              Li    Li Li   Li           
                                         
                Li       Li              
                                         
                                         
                                         
                                         

Positions:
   0 Li     1.753189    1.012426    1.530029    ( 0.0000,  0.0000,  0.0000)
   1 Li    -0.000191    4.049369    1.530029    ( 0.0000,  0.0000,  0.0000)
   2 Li     5.259899    1.012426    1.530029    ( 0.0000,  0.0000,  0.0000)
   3 Li     3.506519    4.049369    1.530029    ( 0.0000,  0.0000,  0.0000)
   4 Li     1.678984    0.890462   13.183851    ( 0.0000,  0.0000,  0.0000)
   5 Li    -0.168459    4.096038   13.310295    ( 0.0000,  0.0000,  0.0000)
   6 Li     5.386903    0.892901   13.309461    ( 0.0000,  0.0000,  0.0000)
   7 Li     3.612845    4.238699   13.363744    ( 0.0000,  0.0000,  0.0000)
   8 Li     3.551241   -0.017036   15.163847    ( 0.0000,  0.0000,  0.0000)
   9 Li     1.717916    3.197987   14.746054    ( 0.0000,  0.0000,  0.0000)
  10 Li     6.955350   -0.033274   15.400231    ( 0.0000,  0.0000,  0.0000)
  11 Li     5.196120    2.925395   16.059303    ( 0.0000,  0.0000,  0.0000)
  12 Li    -0.037220    2.055385   15.173580    ( 0.0000,  0.0000,  0.0000)
  13 Li    -1.754896    4.998930   15.402508    ( 0.0000,  0.0000,  0.0000)
  14 Li     3.662125    2.076697   14.738893    ( 0.0000,  0.0000,  0.0000)
  15 Li     1.683629    4.952299   16.063858    ( 0.0000,  0.0000,  0.0000)
  16 Li     3.506465    0.000182    3.465092    ( 0.0000,  0.0000,  0.0000)
  17 Li     1.753085    3.037125    3.465092    ( 0.0000,  0.0000,  0.0000)
  18 Li     7.013175    0.000182    3.465092    ( 0.0000,  0.0000,  0.0000)
  19 Li     5.259795    3.037125    3.465092    ( 0.0000,  0.0000,  0.0000)
  20 Li    -0.000262    2.024791    3.465092    ( 0.0000,  0.0000,  0.0000)
  21 Li    -1.753642    5.061734    3.465092    ( 0.0000,  0.0000,  0.0000)
  22 Li     3.506448    2.024791    3.465092    ( 0.0000,  0.0000,  0.0000)
  23 Li     1.753068    5.061734    3.465092    ( 0.0000,  0.0000,  0.0000)
  24 Li     1.753084    1.012487    5.431887    ( 0.0000,  0.0000,  0.0000)
  25 Li    -0.000296    4.049430    5.431887    ( 0.0000,  0.0000,  0.0000)
  26 Li     5.259794    1.012487    5.431887    ( 0.0000,  0.0000,  0.0000)
  27 Li     3.506414    4.049430    5.431887    ( 0.0000,  0.0000,  0.0000)
  28 Li     3.506429    0.000182    7.378027    ( 0.0000,  0.0000,  0.0000)
  29 Li     1.753049    3.037125    7.378027    ( 0.0000,  0.0000,  0.0000)
  30 Li     7.013139    0.000182    7.378027    ( 0.0000,  0.0000,  0.0000)
  31 Li     5.259759    3.037125    7.378027    ( 0.0000,  0.0000,  0.0000)
  32 Li    -0.000297    2.024791    7.378027    ( 0.0000,  0.0000,  0.0000)
  33 Li    -1.753677    5.061734    7.378027    ( 0.0000,  0.0000,  0.0000)
  34 Li     3.506413    2.024791    7.378027    ( 0.0000,  0.0000,  0.0000)
  35 Li     1.753033    5.061734    7.378027    ( 0.0000,  0.0000,  0.0000)
  36 Li     1.764787    1.032946    9.316568    ( 0.0000,  0.0000,  0.0000)
  37 Li     0.013424    4.040495    9.358291    ( 0.0000,  0.0000,  0.0000)
  38 Li     5.243157    1.018901    9.357874    ( 0.0000,  0.0000,  0.0000)
  39 Li     3.488478    4.020329    9.372403    ( 0.0000,  0.0000,  0.0000)
  40 Li     3.506504   -0.002485   11.284562    ( 0.0000,  0.0000,  0.0000)
  41 Li     1.748163    3.032032   11.368536    ( 0.0000,  0.0000,  0.0000)
  42 Li     7.004490   -0.004479   11.216575    ( 0.0000,  0.0000,  0.0000)
  43 Li     5.252441    3.024663   11.435468    ( 0.0000,  0.0000,  0.0000)
  44 Li    -0.005234    2.025564   11.270019    ( 0.0000,  0.0000,  0.0000)
  45 Li    -1.755116    5.052004   11.209467    ( 0.0000,  0.0000,  0.0000)
  46 Li     3.502835    2.019891   11.354064    ( 0.0000,  0.0000,  0.0000)
  47 Li     1.743922    5.050303   11.424303    ( 0.0000,  0.0000,  0.0000)
  48 N      1.753084    1.012487    3.439048    ( 0.0000,  0.0000,  0.0000)
  49 N     -0.000296    4.049430    3.439048    ( 0.0000,  0.0000,  0.0000)
  50 N      5.259794    1.012487    3.439048    ( 0.0000,  0.0000,  0.0000)
  51 N      3.506414    4.049430    3.439048    ( 0.0000,  0.0000,  0.0000)
  52 N      1.753031    1.012517    7.360963    ( 0.0000,  0.0000,  0.0000)
  53 N     -0.000349    4.049460    7.360963    ( 0.0000,  0.0000,  0.0000)
  54 N      5.259741    1.012517    7.360963    ( 0.0000,  0.0000,  0.0000)
  55 N      3.506361    4.049460    7.360963    ( 0.0000,  0.0000,  0.0000)
  56 N      1.746337    1.003483   11.230862    ( 0.0000,  0.0000,  0.0000)
  57 N     -0.013293    4.046326   11.317012    ( 0.0000,  0.0000,  0.0000)
  58 N      5.261710    1.001007   11.316125    ( 0.0000,  0.0000,  0.0000)
  59 N      3.507476    4.053828   11.356011    ( 0.0000,  0.0000,  0.0000)
  60 N      1.768111    1.040011   15.082851    ( 0.0000,  0.0000,  0.0000)
  61 N     -0.022115    4.032173   15.268481    ( 0.0000,  0.0000,  0.0000)
  62 N      5.252875    0.987015   15.268057    ( 0.0000,  0.0000,  0.0000)
  63 N      3.453720    3.960086   15.368950    ( 0.0000,  0.0000,  0.0000)
  64 Li     2.340596    2.011004   16.645548    ( 0.0000,  0.0000,  0.0000)

Unit cell:
           periodic     x           y           z      points  spacing
  1. axis:    yes    7.013420    0.000000    0.000000    40     0.1518
  2. axis:    yes   -3.506760    6.073886    0.000000    40     0.1518
  3. axis:    yes    0.000000    0.000000   29.936001   160     0.1871

  Lengths:   7.013420   7.013520  29.936001
  Angles:   90.000000  90.000000 120.000000

Effective grid spacing dv^(1/3) = 0.1708

                     log10-error:    total        iterations:
           time      wfs    density  energy       fermi  poisson
iter:   1  17:01:32  -4.34         -235.028747    2             
iter:   2  17:02:12  -4.98  -2.78  -235.027422    3             
iter:   3  17:02:51  -5.46  -2.41  -235.023607    3             
iter:   4  17:03:31  -5.93  -3.31  -235.022231    2             
iter:   5  17:04:11  -6.18  -3.34  -235.022879    2             
iter:   6  17:04:52  -6.42  -3.75  -235.023023    2             
iter:   7  17:05:32  -6.71  -3.96  -235.022703    2             
iter:   8  17:06:13  -7.25  -3.80  -235.022789    2             
iter:   9  17:06:54  -7.21  -4.04  -235.022852    2             

Converged after 9 iterations.

Dipole moment: (-0.536637, 1.284002, -11.410522) |e|*Ang

Energy contributions relative to reference atoms: (reference = -33644.147259)

Kinetic:       +252.781634
Potential:     -186.975839
External:        +0.000000
XC:            -299.507269
Entropy (-ST):   -0.075655
Local:           -1.283550
--------------------------
Free energy:   -235.060679
Extrapolated:  -235.022852

Fermi level: -0.26175

Showing only first 2 kpts
 Kpt  Band  Eigenvalues  Occupancy
  0    62     -0.66310    0.07997
  0    63     -0.06001    0.00139
  0    64     -0.03064    0.00078
  0    65      0.13162    0.00003

  1    62     -0.67921    0.15996
  1    63     -0.31418    0.11848
  1    64     -0.15325    0.01640
  1    65      0.32912    0.00000



Forces in eV/Ang:
  0 Li   -0.00006    0.00007   -0.05705
  1 Li   -0.00006    0.00005   -0.05721
  2 Li   -0.00008    0.00006   -0.05721
  3 Li   -0.00008    0.00003   -0.05735
  4 Li   -0.01142   -0.02021    0.03350
  5 Li   -0.01992    0.00380   -0.00326
  6 Li    0.01299   -0.01585   -0.00421
  7 Li    0.00937    0.01753    0.00330
  8 Li    0.00488   -0.00797    0.01046
  9 Li   -0.00654    0.00095   -0.04598
 10 Li   -0.01548    0.00487    0.00875
 11 Li   -0.00733   -0.01809   -0.00134
 12 Li   -0.00913    0.00027    0.00992
 13 Li    0.01138   -0.01083    0.01038
 14 Li    0.00415   -0.00428   -0.04718
 15 Li   -0.01226   -0.01613   -0.00066
 16 Li    0.00005   -0.00010   -0.04711
 17 Li   -0.00017   -0.00022   -0.04677
 18 Li   -0.00003    0.00011   -0.04787
 19 Li    0.00018   -0.00029   -0.04718
 20 Li   -0.00008    0.00012   -0.04714
 21 Li    0.00015    0.00015   -0.04786
 22 Li   -0.00007   -0.00013   -0.04677
 23 Li   -0.00031    0.00013   -0.04716
 24 Li    0.00076    0.00127   -0.06999
 25 Li    0.00076   -0.00032   -0.06183
 26 Li   -0.00072    0.00043   -0.06191
 27 Li   -0.00069   -0.00113   -0.06056
 28 Li    0.00146   -0.00983   -0.00116
 29 Li   -0.00533    0.00722   -0.02948
 30 Li   -0.00284   -0.00540    0.02911
 31 Li    0.00413    0.00589    0.01199
 32 Li   -0.00989   -0.00300   -0.00008
 33 Li   -0.00389   -0.00505    0.02832
 34 Li    0.00853   -0.00020   -0.03040
 35 Li    0.00281    0.00670    0.00970
 36 Li    0.01002    0.01683   -0.00611
 37 Li    0.00945   -0.00733    0.00582
 38 Li   -0.01147    0.00437    0.00523
 39 Li   -0.01043   -0.01795    0.01355
 40 Li    0.00548   -0.00281   -0.00142
 41 Li   -0.00056    0.00449    0.01046
 42 Li   -0.00869   -0.00666   -0.00844
 43 Li   -0.00301   -0.00399   -0.00304
 44 Li   -0.00548    0.00374   -0.00746
 45 Li   -0.00126   -0.01127   -0.01231
 46 Li    0.00440    0.00188    0.00301
 47 Li   -0.00193   -0.00450   -0.00840
 48 N    -0.00066   -0.00059    0.10647
 49 N    -0.00064    0.00049    0.11443
 50 N     0.00033   -0.00002    0.11432
 51 N     0.00048    0.00132    0.12058
 52 N     0.01093    0.01834   -0.02795
 53 N     0.01329   -0.00697    0.12173
 54 N    -0.01376    0.00701    0.12042
 55 N    -0.01427   -0.02383    0.17986
 56 N    -0.00116   -0.00215   -0.00630
 57 N    -0.00382    0.00060    0.00120
 58 N     0.00247   -0.00279    0.00051
 59 N     0.00271    0.00453    0.01595
 60 N    -0.01243   -0.02011   -0.03235
 61 N    -0.01619    0.00209    0.00519
 62 N     0.01073   -0.01326    0.00489
 63 N     0.00242    0.00399    0.01244
 64 Li    0.07288    0.12666   -0.01968

Timing:                                      incl.     excl.
-------------------------------------------------------------------
Density initialized from wave functions:   250.524   250.523   0.9% |
 Symmetrize density:                         0.001     0.001   0.0% |
Forces:                                    726.682   726.682   2.6% ||
Hamiltonian:                               155.897     0.515   0.0% |
 Atomic:                                    22.733    12.962   0.0% |
  XC Correction:                             9.772     9.772   0.0% |
 Calculate atomic Hamiltonians:             67.045    67.045   0.2% |
 Communicate:                                1.895     1.895   0.0% |
 Initialize Hamiltonian:                     0.001     0.001   0.0% |
 Poisson:                                    0.123     0.123   0.0% |
 XC 3D grid:                                63.585    63.585   0.2% |
LCAO initialization:                        16.337     0.050   0.0% |
 LCAO eigensolver:                           3.838     0.000   0.0% |
  Calculate projections:                     0.059     0.059   0.0% |
  DenseAtomicCorrection:                     0.019     0.019   0.0% |
  Distribute overlap matrix:                 0.001     0.001   0.0% |
  Orbital Layouts:                           0.312     0.312   0.0% |
  Potential matrix:                          3.442     3.442   0.0% |
  Sum over cells:                            0.004     0.004   0.0% |
 LCAO to grid:                              10.927    10.927   0.0% |
 Set positions (LCAO WFS):                   1.522     0.339   0.0% |
  Basic WFS set positions:                   0.002     0.002   0.0% |
  Basis functions set positions:             0.000     0.000   0.0% |
  P tci:                                     0.584     0.584   0.0% |
  ST tci:                                    0.266     0.266   0.0% |
  mktci:                                     0.331     0.331   0.0% |
PWDescriptor:                                1.073     1.073   0.0% |
Redistribute:                                0.203     0.203   0.0% |
SCF-cycle:                               22798.603  9178.719  33.0% |------------|
 Davidson:                                9759.613  3706.446  13.3% |----|
  Apply H:                                 901.773   897.784   3.2% ||
   HMM T:                                    3.989     3.989   0.0% |
  Subspace diag:                          1441.514     0.104   0.0% |
   calc_h_matrix:                         1004.349   160.989   0.6% |
    Apply H:                               843.360   839.490   3.0% ||
     HMM T:                                  3.871     3.871   0.0% |
   diagonalize:                             53.083    53.083   0.2% |
   rotate_psi:                             383.978   383.978   1.4% ||
  calc. matrices:                         2793.008  1103.313   4.0% |-|
   Apply H:                               1689.695  1682.104   6.0% |-|
    HMM T:                                   7.591     7.591   0.0% |
  diagonalize:                             147.922   147.922   0.5% |
  rotate_psi:                              768.951   768.951   2.8% ||
 Density:                                 1851.742     0.012   0.0% |
  Atomic density matrices:                   3.117     3.117   0.0% |
  Mix:                                    1068.808  1068.808   3.8% |-|
  Multipole moments:                         0.449     0.449   0.0% |
  Pseudo density:                          779.356   779.344   2.8% ||
   Symmetrize density:                       0.012     0.012   0.0% |
 Hamiltonian:                             1768.303     5.849   0.0% |
  Atomic:                                  273.269   172.417   0.6% |
   XC Correction:                          100.852   100.852   0.4% |
  Calculate atomic Hamiltonians:           752.630   752.630   2.7% ||
  Communicate:                              20.068    20.068   0.1% |
  Poisson:                                   1.386     1.386   0.0% |
  XC 3D grid:                              715.100   715.100   2.6% ||
 Orthonormalize:                           240.227     0.011   0.0% |
  calc_s_matrix:                             6.714     6.714   0.0% |
  inverse-cholesky:                        146.906   146.906   0.5% |
  projections:                              74.725    74.725   0.3% |
  rotate_psi_s:                             11.870    11.870   0.0% |
Set symmetry:                                0.001     0.001   0.0% |
Other:                                    3906.249  3906.249  14.0% |-----|
-------------------------------------------------------------------
Total:                                             27855.570 100.0%

Date: Tue Sep  7 17:07:25 2021
