
  ___ ___ ___ _ _ _  
 |   |   |_  | | | | 
 | | | | | . | | | | 
 |__ |  _|___|_____|  20.1.0
 |___|_|             

User:   jywang@lbnode01
Date:   Mon Aug 23 23:56:59 2021
Arch:   x86_64
Pid:    125148
Python: 3.7.4
gpaw:   /home/jywang/intel/intelpython3/lib/python3.7/site-packages/gpaw
_gpaw:  /home/jywang/intel/intelpython3/lib/python3.7/site-packages/
        _gpaw.cpython-37m-x86_64-linux-gnu.so
ase:    /home/jywang/intel/intelpython3/lib/python3.7/site-packages/ase (version 3.19.0)
numpy:  /home/jywang/intel/intelpython3/lib/python3.7/site-packages/numpy (version 1.17.4)
scipy:  /home/jywang/intel/intelpython3/lib/python3.7/site-packages/scipy (version 1.3.2)
libxc:  4.3.4
units:  Angstrom and eV
cores: 32
OMP_NUM_THREADS: 1

Input parameters:
  convergence: {eigenstates: 1e-08}
  kpts: [11 11  1]
  mode: {ecut: 500.0,
         gammacentered: False,
         name: pw}
  occupations: {name: fermi-dirac,
                width: 0.03}
  random: True
  xc: PBE

System changes: positions, numbers, cell, pbc, initial_charges, initial_magmoms 

Initialize ...

Li-setup:
  name: Lithium
  id: 830b4218f175192f93f959cfc0aad614
  Z: 3
  valence: 1
  core: 2
  charge: 0.0
  file: /home/jywang/gpaw_paws/gpaw-setups-0.9.20000/Li.PBE.gz
  compensation charges: gauss, rc=0.33, lmax=2
  cutoffs: 1.91(filt), 2.55(core),
  valence states:
                energy  radius
    2s(1.00)    -2.874   1.058
    2p(0.00)    -1.090   1.058
    *s          24.337   1.058

  Using partial waves for Li as LCAO basis

N-setup:
  name: Nitrogen
  id: f7500608b86eaa90eef8b1d9a670dc53
  Z: 7
  valence: 5
  core: 2
  charge: 0.0
  file: /home/jywang/gpaw_paws/gpaw-setups-0.9.20000/N.PBE.gz
  compensation charges: gauss, rc=0.18, lmax=2
  cutoffs: 1.11(filt), 0.96(core),
  valence states:
                energy  radius
    2s(2.00)   -18.583   0.603
    2p(3.00)    -7.089   0.529
    *s           8.629   0.603
    *p          20.123   0.529
    *d           0.000   0.577

  Using partial waves for N as LCAO basis

Reference energy: -8360.339860

Spin-paired calculation

Occupation numbers:
  Fermi-Dirac: width=0.0300 eV

Convergence criteria:
  Maximum total energy change: 0.0005 eV / electron
  Maximum integral of absolute density change: 0.0001 electrons
  Maximum integral of absolute eigenstate change: 1e-08 eV^2
  Maximum number of iterations: 333

Symmetries present (total): 1

  ( 1  0  0)
  ( 0  1  0)
  ( 0  0  1)

121 k-points: 11 x 11 x 1 Monkhorst-Pack grid
61 k-points in the irreducible part of the Brillouin zone
       k-points in crystal coordinates                weights
   0:     0.00000000    0.00000000    0.00000000          1/121
   1:     0.00000000    0.09090909    0.00000000          2/121
   2:     0.00000000    0.18181818    0.00000000          2/121
   3:     0.00000000    0.27272727    0.00000000          2/121
   4:     0.00000000    0.36363636    0.00000000          2/121
   5:     0.00000000    0.45454545    0.00000000          2/121
   6:     0.09090909   -0.45454545    0.00000000          2/121
   7:     0.09090909   -0.36363636    0.00000000          2/121
   8:     0.09090909   -0.27272727    0.00000000          2/121
   9:     0.09090909   -0.18181818    0.00000000          2/121
          ...
  60:     0.45454545    0.45454545    0.00000000          2/121

Wave functions: Plane wave expansion
  Cutoff energy: 500.000 eV
  Number of coefficients (min, max): 8030, 8145
  Pulay-stress correction: 0.000000 eV/Ang^3 (de/decut=0.000000)
  Using FFTW library
  ScaLapack parameters: grid=1x1, blocksize=None
  Wavefunction extrapolation:
    Improved wavefunction reuse through dual PAW basis 

Eigensolver
   Davidson(niter=2, smin=None, normalize=True) 

Densities:
  Coarse grid: 20*20*160 grid
  Fine grid: 40*40*320 grid
  Total Charge: 0.000000 

Density mixing:
  Method: separate
  Backend: pulay
  Linear mixing parameter: 0.05
  Mixing with 5 old densities
  Damping of long wave oscillations: 50 

Hamiltonian:
  XC and Coulomb potentials evaluated on a 40*40*320 grid
  Using the PBE Exchange-Correlation functional
 

XC parameters: PBE with 2 nearest neighbor stencil

Memory estimate:
  Process memory now: 107.04 MiB
  Calculator: 47.20 MiB
    Density: 28.31 MiB
      Arrays: 12.70 MiB
      Localized functions: 10.74 MiB
      Mixer: 4.88 MiB
    Hamiltonian: 8.56 MiB
      Arrays: 8.30 MiB
      XC: 0.00 MiB
      Poisson: 0.00 MiB
      vbar: 0.26 MiB
    Wavefunctions: 10.33 MiB
      Arrays psit_nG: 2.98 MiB
      Eigensolver: 3.69 MiB
      Projections: 0.04 MiB
      Projectors: 1.04 MiB
      PW-descriptor: 2.57 MiB

Total number of cores used: 32
Parallelization over k-points: 32

Number of atoms: 16
Number of atomic orbitals: 64
Number of bands in calculation: 24
Number of valence electrons: 32
Bands to converge: occupied

... initialized

Initializing position-dependent things.

Density initialized from atomic densities
Creating initial wave functions:
  24 bands from LCAO basis set

                      
                      
                      
                      
         Li N         
       Li             
                      
            Li        
         Li           
            N         
       Li             
            Li        
                      
         Li           
       Li   N         
                      
            Li        
                      
         Li N         
       Li             
                      
            Li        
                      
                      
                      
                      

Positions:
   0 Li     1.753347    1.012335    1.866989    ( 0.0000,  0.0000,  0.0000)
   1 Li     0.000000    0.000000    3.734007    ( 0.0000,  0.0000,  0.0000)
   2 N      1.753347    1.012335    3.734007    ( 0.0000,  0.0000,  0.0000)
   3 Li    -0.000017    2.024669    3.734007    ( 0.0000,  0.0000,  0.0000)
   4 Li     1.753347    1.012335    5.600996    ( 0.0000,  0.0000,  0.0000)
   5 Li     0.000000    0.000000    7.467984    ( 0.0000,  0.0000,  0.0000)
   6 N      1.753347    1.012335    7.467984    ( 0.0000,  0.0000,  0.0000)
   7 Li    -0.000017    2.024669    7.467984    ( 0.0000,  0.0000,  0.0000)
   8 Li     1.753347    1.012335    9.334973    ( 0.0000,  0.0000,  0.0000)
   9 Li     0.000000    0.000000   11.201992    ( 0.0000,  0.0000,  0.0000)
  10 N      1.753347    1.012335   11.201992    ( 0.0000,  0.0000,  0.0000)
  11 Li    -0.000017    2.024669   11.201992    ( 0.0000,  0.0000,  0.0000)
  12 Li     1.753347    1.012335   13.068980    ( 0.0000,  0.0000,  0.0000)
  13 Li     0.000000    0.000000   14.935969    ( 0.0000,  0.0000,  0.0000)
  14 N      1.753347    1.012335   14.935969    ( 0.0000,  0.0000,  0.0000)
  15 Li    -0.000017    2.024669   14.935969    ( 0.0000,  0.0000,  0.0000)

Unit cell:
           periodic     x           y           z      points  spacing
  1. axis:    yes    3.506710    0.000000    0.000000    20     0.1518
  2. axis:    yes   -1.753380    3.036943    0.000000    20     0.1518
  3. axis:    yes    0.000000    0.000000   29.936001   160     0.1871

  Lengths:   3.506710   3.506760  29.936001
  Angles:   90.000000  90.000000 120.000000

Effective grid spacing dv^(1/3) = 0.1708

                     log10-error:    total        iterations:
           time      wfs    density  energy       fermi  poisson
iter:   1  23:57:14                 -67.264568    5             
iter:   2  23:57:17  -1.12  -0.51   -65.015296    33            
iter:   3  23:57:20  -1.83  -0.61   -64.592247    0             
iter:   4  23:57:23  -0.77  -0.59   -61.950147    35            
iter:   5  23:57:26  -1.90  -0.82   -59.117709    31            
iter:   6  23:57:29  +0.03  -0.80  -122.329391    31            
iter:   7  23:57:32  -0.39  -0.21   -57.407439    32            
iter:   8  23:57:35  -0.51  -0.89   -58.898797    33            
iter:   9  23:57:39  -0.26  -0.88   -60.049088    4             
iter:  10  23:57:42  -0.29  -0.89   -59.952496    4             
iter:  11  23:57:45  -0.96  -0.91   -58.837225    6             
iter:  12  23:57:47  -1.33  -0.99   -66.506600    34            
iter:  13  23:57:50  -3.02  -0.57   -62.687249    4             
iter:  14  23:57:54  -3.16  -0.74   -64.755408    4             
iter:  15  23:57:57  -3.37  -0.65   -66.307967    4             
iter:  16  23:58:00  -1.03  -0.59   -58.396857    29            
iter:  17  23:58:03  -2.53  -1.06   -58.139291    4             
iter:  18  23:58:07  -2.50  -1.11   -57.593308    32            
iter:  19  23:58:10  -2.50  -1.31   -57.668509    4             
iter:  20  23:58:12  -2.96  -1.36   -57.599586    5             
iter:  21  23:58:15  -3.32  -1.51   -58.041590    4             
iter:  22  23:58:19  -1.97  -1.13   -57.970698    30            
iter:  23  23:58:22  -3.34  -1.31   -57.937969    6             
iter:  24  23:58:25  -2.89  -1.44   -57.770852    5             
iter:  25  23:58:29  -4.34  -1.52   -57.798524    4             
iter:  26  23:58:32  -3.81  -1.50   -57.589092    4             
iter:  27  23:58:35  -3.63  -1.85   -57.562804    5             
iter:  28  23:58:38  -4.31  -1.87   -57.564404    5             
iter:  29  23:58:41  -3.98  -1.91   -57.548482    3             
iter:  30  23:58:45  -5.29  -1.99   -57.543842    4             
iter:  31  23:58:48  -5.08  -2.08   -57.545068    3             
iter:  32  23:58:51  -4.25  -2.02   -57.541339    4             
iter:  33  23:58:55  -3.62  -2.12   -57.541471    4             
iter:  34  23:58:58  -5.04  -2.42   -57.543053    2             
iter:  35  23:59:01  -4.81  -2.15   -57.539699    3             
iter:  36  23:59:04  -5.05  -2.49   -57.539890    3             
iter:  37  23:59:07  -5.52  -2.48   -57.539891    2             
iter:  38  23:59:10  -5.66  -2.59   -57.540441    3             
iter:  39  23:59:13  -5.57  -2.41   -57.539917    3             
iter:  40  23:59:16  -5.18  -2.61   -57.540055    3             
iter:  41  23:59:19  -5.55  -2.74   -57.541086    3             
iter:  42  23:59:22  -5.32  -2.57   -57.540452    3             
iter:  43  23:59:25  -6.11  -2.86   -57.540012    3             
iter:  44  23:59:28  -6.75  -3.12   -57.540043    3             
iter:  45  23:59:31  -7.04  -3.42   -57.539994    3             
iter:  46  23:59:35  -6.95  -3.22   -57.540004    3             
iter:  47  23:59:39  -7.78  -3.67   -57.539991    2             
iter:  48  23:59:42  -7.02  -3.51   -57.540010    3             
iter:  49  23:59:45  -7.87  -3.96   -57.540018    2             
iter:  50  23:59:48  -8.05  -3.85   -57.540025    2             
iter:  51  23:59:51  -8.44  -3.78   -57.540019    2             
iter:  52  23:59:54  -8.25  -3.92   -57.540017    2             
iter:  53  23:59:57  -8.17  -4.03   -57.540004    2             

Converged after 53 iterations.

Dipole moment: (-0.697035, 0.402812, -1.865537) |e|*Ang

Energy contributions relative to reference atoms: (reference = -8360.339860)

Kinetic:        +74.324770
Potential:      -54.617120
External:        +0.000000
XC:             -76.911519
Entropy (-ST):   -0.015384
Local:           -0.328443
--------------------------
Free energy:    -57.547696
Extrapolated:   -57.540004

Fermi level: -1.01081

Showing only first 2 kpts
 Kpt  Band  Eigenvalues  Occupancy
  0    14     -1.23673    0.01652
  0    15     -0.82005    0.00003
  0    16     -0.81995    0.00003
  0    17      0.24139    0.00000

  1    14     -1.34955    0.03306
  1    15     -1.00153    0.01399
  1    16     -0.92536    0.00181
  1    17      0.46151    0.00000


No gap

Forces in eV/Ang:
  0 Li   -0.00000    0.00000   -0.38786
  1 Li    0.00004    0.00028    0.02904
  2 N    -0.00031    0.00018   -0.38617
  3 Li   -0.00004   -0.00028    0.02904
  4 Li   -0.00000    0.00000    0.18982
  5 Li    0.00004    0.00028    0.05297
  6 N    -0.00032    0.00018   -0.23611
  7 Li   -0.00004   -0.00028    0.05297
  8 Li   -0.00000    0.00000    0.13735
  9 Li    0.00004    0.00028    0.06788
 10 N    -0.00032    0.00018   -0.22855
 11 Li   -0.00004   -0.00028    0.06788
 12 Li   -0.00000    0.00000    0.02305
 13 Li    0.00003    0.00024    0.60628
 14 N    -0.00030    0.00017   -0.55710
 15 Li   -0.00003   -0.00024    0.60628

System changes: positions 

Initializing position-dependent things.

Density initialized from wave functions
                      
                      
                      
                      
         Li N         
       Li             
                      
            Li        
         Li           
            N         
       Li             
            Li        
                      
         Li           
       Li   N         
                      
            Li        
                      
         Li N         
       Li             
                      
            Li        
                      
                      
                      
                      

Positions:
   0 Li     1.753347    1.012335    1.861448    ( 0.0000,  0.0000,  0.0000)
   1 Li     0.000001    0.000004    3.734422    ( 0.0000,  0.0000,  0.0000)
   2 N      1.753342    1.012337    3.728490    ( 0.0000,  0.0000,  0.0000)
   3 Li    -0.000017    2.024665    3.734422    ( 0.0000,  0.0000,  0.0000)
   4 Li     1.753347    1.012335    5.603708    ( 0.0000,  0.0000,  0.0000)
   5 Li     0.000001    0.000004    7.468741    ( 0.0000,  0.0000,  0.0000)
   6 N      1.753342    1.012337    7.464612    ( 0.0000,  0.0000,  0.0000)
   7 Li    -0.000017    2.024665    7.468741    ( 0.0000,  0.0000,  0.0000)
   8 Li     1.753347    1.012335    9.336935    ( 0.0000,  0.0000,  0.0000)
   9 Li     0.000001    0.000004   11.202961    ( 0.0000,  0.0000,  0.0000)
  10 N      1.753342    1.012337   11.198727    ( 0.0000,  0.0000,  0.0000)
  11 Li    -0.000017    2.024665   11.202961    ( 0.0000,  0.0000,  0.0000)
  12 Li     1.753347    1.012335   13.069310    ( 0.0000,  0.0000,  0.0000)
  13 Li     0.000000    0.000003   14.944630    ( 0.0000,  0.0000,  0.0000)
  14 N      1.753342    1.012337   14.928010    ( 0.0000,  0.0000,  0.0000)
  15 Li    -0.000017    2.024666   14.944630    ( 0.0000,  0.0000,  0.0000)

Unit cell:
           periodic     x           y           z      points  spacing
  1. axis:    yes    3.506710    0.000000    0.000000    20     0.1518
  2. axis:    yes   -1.753380    3.036943    0.000000    20     0.1518
  3. axis:    yes    0.000000    0.000000   29.936001   160     0.1871

  Lengths:   3.506710   3.506760  29.936001
  Angles:   90.000000  90.000000 120.000000

Effective grid spacing dv^(1/3) = 0.1708

                     log10-error:    total        iterations:
           time      wfs    density  energy       fermi  poisson
iter:   1  00:00:05  -3.30          -57.571340    3             
iter:   2  00:00:08  -3.87  -2.10   -57.640903    27            
iter:   3  00:00:11  -4.33  -1.68   -57.563509    24            
iter:   4  00:00:14  -4.68  -2.41   -57.564603    4             
iter:   5  00:00:17  -5.18  -2.25   -57.560486    3             
iter:   6  00:00:20  -6.20  -2.95   -57.560566    3             
iter:   7  00:00:23  -5.49  -2.70   -57.560495    3             
iter:   8  00:00:27  -7.08  -2.97   -57.560217    3             
iter:   9  00:00:30  -6.67  -3.64   -57.560204    3             
iter:  10  00:00:34  -7.98  -3.64   -57.560204    2             
iter:  11  00:00:37  -7.24  -3.64   -57.560214    2             
iter:  12  00:00:40  -7.89  -3.87   -57.560217    2             
iter:  13  00:00:43  -7.64  -3.88   -57.560205    2             
iter:  14  00:00:46  -7.01  -3.67   -57.560225    3             
iter:  15  00:00:49  -8.03  -3.98   -57.560215    2             
iter:  16  00:00:53  -8.72  -4.30   -57.560221    2             

Converged after 16 iterations.

Dipole moment: (-0.700200, 0.404549, -1.878593) |e|*Ang

Energy contributions relative to reference atoms: (reference = -8360.339860)

Kinetic:        +74.264301
Potential:      -54.573207
External:        +0.000000
XC:             -76.914394
Entropy (-ST):   -0.015400
Local:           -0.329220
--------------------------
Free energy:    -57.567920
Extrapolated:   -57.560221

Fermi level: -0.99760

Showing only first 2 kpts
 Kpt  Band  Eigenvalues  Occupancy
  0    14     -1.21891    0.01652
  0    15     -0.80693    0.00003
  0    16     -0.80684    0.00003
  0    17      0.25662    0.00000

  1    14     -1.33173    0.03306
  1    15     -0.98847    0.01403
  1    16     -0.91226    0.00182
  1    17      0.47676    0.00000


No gap

Forces in eV/Ang:
  0 Li    0.00000   -0.00000   -0.37086
  1 Li    0.00002    0.00024    0.01428
  2 N    -0.00028    0.00016   -0.31183
  3 Li   -0.00005   -0.00022    0.01428
  4 Li   -0.00000    0.00000    0.10670
  5 Li    0.00002    0.00024    0.04675
  6 N    -0.00028    0.00016   -0.15977
  7 Li   -0.00005   -0.00022    0.04675
  8 Li   -0.00000    0.00000    0.08132
  9 Li    0.00002    0.00024    0.05862
 10 N    -0.00028    0.00016   -0.16389
 11 Li   -0.00005   -0.00022    0.05862
 12 Li   -0.00000    0.00000   -0.02134
 13 Li    0.00001    0.00022    0.55810
 14 N    -0.00026    0.00015   -0.41455
 15 Li   -0.00004   -0.00020    0.55810

System changes: positions 

Initializing position-dependent things.

Density initialized from wave functions
                      
                      
                      
                      
         Li           
       Li   N         
                      
            Li        
         Li           
            N         
       Li             
            Li        
                      
         Li           
       Li   N         
                      
            Li        
                      
         Li N         
       Li             
                      
            Li        
                      
                      
                      
                      

Positions:
   0 Li     1.753347    1.012335    1.834943    ( 0.0000,  0.0000,  0.0000)
   1 Li     0.000002    0.000021    3.735514    ( 0.0000,  0.0000,  0.0000)
   2 N      1.753322    1.012349    3.705901    ( 0.0000,  0.0000,  0.0000)
   3 Li    -0.000021    2.024649    3.735514    ( 0.0000,  0.0000,  0.0000)
   4 Li     1.753347    1.012335    5.611729    ( 0.0000,  0.0000,  0.0000)
   5 Li     0.000002    0.000021    7.472103    ( 0.0000,  0.0000,  0.0000)
   6 N      1.753322    1.012349    7.452844    ( 0.0000,  0.0000,  0.0000)
   7 Li    -0.000021    2.024649    7.472103    ( 0.0000,  0.0000,  0.0000)
   8 Li     1.753347    1.012335    9.343012    ( 0.0000,  0.0000,  0.0000)
   9 Li     0.000002    0.000021   11.207184    ( 0.0000,  0.0000,  0.0000)
  10 N      1.753322    1.012349   11.186725    ( 0.0000,  0.0000,  0.0000)
  11 Li    -0.000021    2.024649   11.207184    ( 0.0000,  0.0000,  0.0000)
  12 Li     1.753347    1.012335   13.068014    ( 0.0000,  0.0000,  0.0000)
  13 Li     0.000001    0.000019   14.984630    ( 0.0000,  0.0000,  0.0000)
  14 N      1.753324    1.012348   14.897759    ( 0.0000,  0.0000,  0.0000)
  15 Li    -0.000020    2.024652   14.984630    ( 0.0000,  0.0000,  0.0000)

Unit cell:
           periodic     x           y           z      points  spacing
  1. axis:    yes    3.506710    0.000000    0.000000    20     0.1518
  2. axis:    yes   -1.753380    3.036943    0.000000    20     0.1518
  3. axis:    yes    0.000000    0.000000   29.936001   160     0.1871

  Lengths:   3.506710   3.506760  29.936001
  Angles:   90.000000  90.000000 120.000000

Effective grid spacing dv^(1/3) = 0.1708

                     log10-error:    total        iterations:
           time      wfs    density  energy       fermi  poisson
iter:   1  00:01:01  -2.06          -57.881705    28            
iter:   2  00:01:04  -2.86  -1.52   -58.432000    33            
iter:   3  00:01:07  -3.13  -1.08   -57.662721    31            
iter:   4  00:01:10  -4.53  -1.88   -57.641605    4             
iter:   5  00:01:13  -4.02  -1.99   -57.654329    5             
iter:   6  00:01:16  -5.25  -1.91   -57.629715    4             
iter:   7  00:01:20  -4.12  -2.09   -57.633731    5             
iter:   8  00:01:23  -4.73  -2.07   -57.622632    4             
iter:   9  00:01:27  -5.12  -2.27   -57.620693    4             
iter:  10  00:01:30  -5.62  -2.26   -57.616766    3             
iter:  11  00:01:33  -6.05  -2.64   -57.617232    2             
iter:  12  00:01:36  -5.91  -2.54   -57.616274    3             
iter:  13  00:01:39  -6.55  -3.16   -57.616669    3             
iter:  14  00:01:42  -6.61  -2.71   -57.616242    3             
iter:  15  00:01:45  -6.50  -3.35   -57.616229    2             
iter:  16  00:01:49  -7.70  -3.58   -57.616225    2             
iter:  17  00:01:52  -7.30  -3.63   -57.616220    3             
iter:  18  00:01:55  -7.64  -3.58   -57.616224    2             
iter:  19  00:01:59  -7.21  -3.51   -57.616223    3             
iter:  20  00:02:01  -7.52  -3.79   -57.616225    2             
iter:  21  00:02:05  -7.33  -4.08   -57.616225    2             
iter:  22  00:02:08  -8.40  -4.14   -57.616220    2             

Converged after 22 iterations.

Dipole moment: (-0.711494, 0.410693, -1.945721) |e|*Ang

Energy contributions relative to reference atoms: (reference = -8360.339860)

Kinetic:        +73.881388
Potential:      -54.289243
External:        +0.000000
XC:             -76.875804
Entropy (-ST):   -0.015374
Local:           -0.324875
--------------------------
Free energy:    -57.623907
Extrapolated:   -57.616220

Fermi level: -0.94523

Showing only first 2 kpts
 Kpt  Band  Eigenvalues  Occupancy
  0    14     -1.14767    0.01651
  0    15     -0.74947    0.00002
  0    16     -0.74944    0.00002
  0    17      0.31638    0.00000

  1    14     -1.26051    0.03306
  1    15     -0.93181    0.01289
  1    16     -0.85473    0.00154
  1    17      0.53642    0.00000


No gap

Forces in eV/Ang:
  0 Li   -0.00000    0.00000   -0.29002
  1 Li   -0.00008    0.00007   -0.05394
  2 N    -0.00015    0.00009   -0.09198
  3 Li   -0.00008    0.00002   -0.05394
  4 Li   -0.00001    0.00001   -0.17142
  5 Li   -0.00008    0.00007    0.01854
  6 N    -0.00015    0.00009    0.09186
  7 Li   -0.00008    0.00002    0.01854
  8 Li   -0.00001    0.00001   -0.10294
  9 Li   -0.00008    0.00007    0.01639
 10 N    -0.00015    0.00009    0.03958
 11 Li   -0.00008    0.00002    0.01639
 12 Li   -0.00001    0.00000   -0.16687
 13 Li   -0.00008    0.00010    0.35312
 14 N    -0.00013    0.00008    0.09865
 15 Li   -0.00009   -0.00000    0.35312

System changes: positions 

Initializing position-dependent things.

Density initialized from wave functions
                      
                      
                      
                      
         Li           
       Li   N         
                      
            Li        
         Li           
            N         
       Li             
            Li        
                      
         Li           
       Li   N         
                      
            Li        
                      
         Li N         
       Li             
                      
            Li        
                      
                      
                      
                      

Positions:
   0 Li     1.753347    1.012335    1.811330    ( 0.0000,  0.0000,  0.0000)
   1 Li     0.000001    0.000034    3.735023    ( 0.0000,  0.0000,  0.0000)
   2 N      1.753306    1.012358    3.689038    ( 0.0000,  0.0000,  0.0000)
   3 Li    -0.000025    2.024639    3.735023    ( 0.0000,  0.0000,  0.0000)
   4 Li     1.753346    1.012335    5.613275    ( 0.0000,  0.0000,  0.0000)
   5 Li     0.000001    0.000034    7.474693    ( 0.0000,  0.0000,  0.0000)
   6 N      1.753305    1.012359    7.447111    ( 0.0000,  0.0000,  0.0000)
   7 Li    -0.000025    2.024639    7.474693    ( 0.0000,  0.0000,  0.0000)
   8 Li     1.753346    1.012335    9.344772    ( 0.0000,  0.0000,  0.0000)
   9 Li     0.000001    0.000034   11.210285    ( 0.0000,  0.0000,  0.0000)
  10 N      1.753306    1.012359   11.179687    ( 0.0000,  0.0000,  0.0000)
  11 Li    -0.000025    2.024639   11.210285    ( 0.0000,  0.0000,  0.0000)
  12 Li     1.753346    1.012335   13.063556    ( 0.0000,  0.0000,  0.0000)
  13 Li    -0.000000    0.000031   15.018419    ( 0.0000,  0.0000,  0.0000)
  14 N      1.753308    1.012357   14.880134    ( 0.0000,  0.0000,  0.0000)
  15 Li    -0.000024    2.024642   15.018419    ( 0.0000,  0.0000,  0.0000)

Unit cell:
           periodic     x           y           z      points  spacing
  1. axis:    yes    3.506710    0.000000    0.000000    20     0.1518
  2. axis:    yes   -1.753380    3.036943    0.000000    20     0.1518
  3. axis:    yes    0.000000    0.000000   29.936001   160     0.1871

  Lengths:   3.506710   3.506760  29.936001
  Angles:   90.000000  90.000000 120.000000

Effective grid spacing dv^(1/3) = 0.1708

                     log10-error:    total        iterations:
           time      wfs    density  energy       fermi  poisson
iter:   1  00:02:16  -2.32          -57.750559    5             
iter:   2  00:02:19  -3.10  -1.66   -58.122959    34            
iter:   3  00:02:22  -3.41  -1.18   -57.653159    30            
iter:   4  00:02:25  -4.76  -2.06   -57.642520    3             
iter:   5  00:02:28  -4.67  -2.16   -57.642166    3             
iter:   6  00:02:31  -5.28  -2.23   -57.635710    4             
iter:   7  00:02:35  -4.89  -2.71   -57.640166    3             
iter:   8  00:02:38  -5.19  -2.24   -57.639055    3             
iter:   9  00:02:41  -5.22  -2.35   -57.636835    4             
iter:  10  00:02:44  -5.99  -2.48   -57.635229    3             
iter:  11  00:02:47  -6.41  -3.35   -57.635781    3             
iter:  12  00:02:50  -5.91  -2.70   -57.635840    3             
iter:  13  00:02:53  -6.78  -2.70   -57.635250    3             
iter:  14  00:02:56  -7.54  -3.45   -57.635235    2             
iter:  15  00:03:00  -6.76  -3.71   -57.635237    3             
iter:  16  00:03:03  -7.89  -3.55   -57.635232    3             
iter:  17  00:03:06  -8.42  -4.16   -57.635233    2             

Converged after 17 iterations.

Dipole moment: (-0.717493, 0.413896, -2.010917) |e|*Ang

Energy contributions relative to reference atoms: (reference = -8360.339860)

Kinetic:        +73.460363
Potential:      -53.975531
External:        +0.000000
XC:             -76.789383
Entropy (-ST):   -0.015143
Local:           -0.323111
--------------------------
Free energy:    -57.642804
Extrapolated:   -57.635233

Fermi level: -0.90895

Showing only first 2 kpts
 Kpt  Band  Eigenvalues  Occupancy
  0    14     -1.09875    0.01650
  0    15     -0.70079    0.00002
  0    16     -0.70076    0.00002
  0    17      0.35396    0.00000

  1    14     -1.21159    0.03306
  1    15     -0.88452    0.01015
  1    16     -0.80587    0.00103
  1    17      0.57359    0.00000


No gap

Forces in eV/Ang:
  0 Li   -0.00000    0.00000   -0.20989
  1 Li   -0.00014   -0.00004   -0.10548
  2 N    -0.00003    0.00002    0.03464
  3 Li   -0.00011    0.00019   -0.10548
  4 Li   -0.00002    0.00001   -0.29733
  5 Li   -0.00014   -0.00004   -0.00070
  6 N    -0.00004    0.00002    0.20244
  7 Li   -0.00011    0.00019   -0.00070
  8 Li   -0.00002    0.00001   -0.18306
  9 Li   -0.00014   -0.00004   -0.01471
 10 N    -0.00004    0.00002    0.14535
 11 Li   -0.00011    0.00019   -0.01471
 12 Li   -0.00001    0.00001   -0.19902
 13 Li   -0.00013    0.00001    0.20071
 14 N    -0.00004    0.00002    0.46572
 15 Li   -0.00012    0.00014    0.20071

System changes: positions 

Initializing position-dependent things.

Density initialized from wave functions
                      
                      
                      
                      
         Li           
       Li   N         
                      
            Li        
         Li           
            N         
       Li             
            Li        
                      
         Li           
       Li   N         
                      
            Li        
                      
         Li N         
       Li             
                      
            Li        
                      
                      
                      
                      

Positions:
   0 Li     1.753347    1.012335    1.796813    ( 0.0000,  0.0000,  0.0000)
   1 Li    -0.000002    0.000040    3.733080    ( 0.0000,  0.0000,  0.0000)
   2 N      1.753297    1.012363    3.681331    ( 0.0000,  0.0000,  0.0000)
   3 Li    -0.000028    2.024638    3.733080    ( 0.0000,  0.0000,  0.0000)
   4 Li     1.753346    1.012335    5.609579    ( 0.0000,  0.0000,  0.0000)
   5 Li    -0.000002    0.000040    7.475914    ( 0.0000,  0.0000,  0.0000)
   6 N      1.753297    1.012364    7.447307    ( 0.0000,  0.0000,  0.0000)
   7 Li    -0.000028    2.024637    7.475914    ( 0.0000,  0.0000,  0.0000)
   8 Li     1.753346    1.012335    9.342914    ( 0.0000,  0.0000,  0.0000)
   9 Li    -0.000002    0.000040   11.211517    ( 0.0000,  0.0000,  0.0000)
  10 N      1.753297    1.012363   11.178440    ( 0.0000,  0.0000,  0.0000)
  11 Li    -0.000028    2.024638   11.211517    ( 0.0000,  0.0000,  0.0000)
  12 Li     1.753346    1.012335   13.058529    ( 0.0000,  0.0000,  0.0000)
  13 Li    -0.000003    0.000037   15.037693    ( 0.0000,  0.0000,  0.0000)
  14 N      1.753301    1.012361   14.879082    ( 0.0000,  0.0000,  0.0000)
  15 Li    -0.000028    2.024640   15.037693    ( 0.0000,  0.0000,  0.0000)

Unit cell:
           periodic     x           y           z      points  spacing
  1. axis:    yes    3.506710    0.000000    0.000000    20     0.1518
  2. axis:    yes   -1.753380    3.036943    0.000000    20     0.1518
  3. axis:    yes    0.000000    0.000000   29.936001   160     0.1871

  Lengths:   3.506710   3.506760  29.936001
  Angles:   90.000000  90.000000 120.000000

Effective grid spacing dv^(1/3) = 0.1708

                     log10-error:    total        iterations:
           time      wfs    density  energy       fermi  poisson
iter:   1  00:03:13  -2.90          -57.674797    5             
iter:   2  00:03:16  -3.77  -2.04   -57.709629    5             
iter:   3  00:03:20  -4.38  -1.81   -57.647322    31            
iter:   4  00:03:23  -4.92  -2.61   -57.647739    3             
iter:   5  00:03:27  -5.05  -2.46   -57.653899    3             
iter:   6  00:03:30  -5.37  -2.22   -57.646163    4             
iter:   7  00:03:33  -5.86  -3.02   -57.646541    3             
iter:   8  00:03:36  -5.29  -2.70   -57.648107    4             
iter:   9  00:03:39  -6.65  -2.47   -57.646775    3             
iter:  10  00:03:42  -7.03  -2.67   -57.647097    3             
iter:  11  00:03:45  -6.03  -2.60   -57.646162    3             
iter:  12  00:03:48  -6.38  -3.11   -57.646302    3             
iter:  13  00:03:52  -6.96  -2.90   -57.646087    3             
iter:  14  00:03:55  -6.97  -3.39   -57.646070    3             
iter:  15  00:03:58  -7.81  -3.93   -57.646072    2             
iter:  16  00:04:00  -7.45  -3.90   -57.646070    3             
iter:  17  00:04:03  -8.37  -4.34   -57.646071    2             

Converged after 17 iterations.

Dipole moment: (-0.718032, 0.414122, -2.050050) |e|*Ang

Energy contributions relative to reference atoms: (reference = -8360.339860)

Kinetic:        +73.084602
Potential:      -53.702367
External:        +0.000000
XC:             -76.698090
Entropy (-ST):   -0.014960
Local:           -0.322736
--------------------------
Free energy:    -57.653550
Extrapolated:   -57.646071

Fermi level: -0.89437

Showing only first 2 kpts
 Kpt  Band  Eigenvalues  Occupancy
  0    14     -1.08106    0.01650
  0    15     -0.67666    0.00001
  0    16     -0.67662    0.00001
  0    17      0.36553    0.00000

  1    14     -1.19391    0.03306
  1    15     -0.86124    0.00823
  1    16     -0.78162    0.00075
  1    17      0.58474    0.00000


No gap

Forces in eV/Ang:
  0 Li   -0.00001    0.00000   -0.15369
  1 Li   -0.00016   -0.00008   -0.13114
  2 N     0.00000   -0.00000    0.04528
  3 Li   -0.00012    0.00024   -0.13114
  4 Li   -0.00003    0.00002   -0.28150
  5 Li   -0.00017   -0.00008   -0.00896
  6 N    -0.00000    0.00000    0.16988
  7 Li   -0.00012    0.00025   -0.00896
  8 Li   -0.00002    0.00001   -0.16207
  9 Li   -0.00016   -0.00008   -0.02945
 10 N    -0.00000    0.00000    0.13617
 11 Li   -0.00012    0.00024   -0.02945
 12 Li   -0.00002    0.00001   -0.11097
 13 Li   -0.00016   -0.00002    0.13717
 14 N    -0.00001    0.00000    0.53518
 15 Li   -0.00013    0.00019    0.13718

System changes: positions 

Initializing position-dependent things.

Density initialized from wave functions
                      
                      
                      
                      
         Li           
       Li   N         
                      
            Li        
         Li           
            N         
       Li             
            Li        
                      
         Li           
       Li   N         
                      
            Li        
                      
         Li N         
       Li             
                      
            Li        
                      
                      
                      
                      

Positions:
   0 Li     1.753346    1.012335    1.765699    ( 0.0000,  0.0000,  0.0000)
   1 Li    -0.000011    0.000048    3.725894    ( 0.0000,  0.0000,  0.0000)
   2 N      1.753282    1.012372    3.667181    ( 0.0000,  0.0000,  0.0000)
   3 Li    -0.000038    2.024640    3.725894    ( 0.0000,  0.0000,  0.0000)
   4 Li     1.753344    1.012336    5.596351    ( 0.0000,  0.0000,  0.0000)
   5 Li    -0.000011    0.000048    7.477981    ( 0.0000,  0.0000,  0.0000)
   6 N      1.753281    1.012373    7.450872    ( 0.0000,  0.0000,  0.0000)
   7 Li    -0.000039    2.024640    7.477981    ( 0.0000,  0.0000,  0.0000)
   8 Li     1.753344    1.012336    9.336036    ( 0.0000,  0.0000,  0.0000)
   9 Li    -0.000011    0.000048   11.213040    ( 0.0000,  0.0000,  0.0000)
  10 N      1.753281    1.012373   11.178772    ( 0.0000,  0.0000,  0.0000)
  11 Li    -0.000038    2.024640   11.213040    ( 0.0000,  0.0000,  0.0000)
  12 Li     1.753345    1.012336   13.047620    ( 0.0000,  0.0000,  0.0000)
  13 Li    -0.000012    0.000048   15.077693    ( 0.0000,  0.0000,  0.0000)
  14 N      1.753285    1.012370   14.889916    ( 0.0000,  0.0000,  0.0000)
  15 Li    -0.000038    2.024641   15.077693    ( 0.0000,  0.0000,  0.0000)

Unit cell:
           periodic     x           y           z      points  spacing
  1. axis:    yes    3.506710    0.000000    0.000000    20     0.1518
  2. axis:    yes   -1.753380    3.036943    0.000000    20     0.1518
  3. axis:    yes    0.000000    0.000000   29.936001   160     0.1871

  Lengths:   3.506710   3.506760  29.936001
  Angles:   90.000000  90.000000 120.000000

Effective grid spacing dv^(1/3) = 0.1708

                     log10-error:    total        iterations:
           time      wfs    density  energy       fermi  poisson
iter:   1  00:04:11  -2.21          -57.788259    31            
iter:   2  00:04:14  -3.11  -1.64   -58.168010    31            
iter:   3  00:04:18  -3.46  -1.17   -57.685434    32            
iter:   4  00:04:21  -4.42  -2.01   -57.671967    4             
iter:   5  00:04:24  -4.80  -2.28   -57.671061    3             
iter:   6  00:04:27  -4.49  -2.28   -57.670740    2             
iter:   7  00:04:30  -4.73  -2.25   -57.668155    3             
iter:   8  00:04:33  -4.90  -2.50   -57.667244    3             
iter:   9  00:04:36  -5.68  -2.93   -57.667149    3             
iter:  10  00:04:40  -6.16  -3.03   -57.667140    3             
iter:  11  00:04:43  -5.75  -3.09   -57.667168    3             
iter:  12  00:04:46  -5.72  -3.10   -57.667132    3             
iter:  13  00:04:49  -7.09  -3.42   -57.667127    2             
iter:  14  00:04:52  -6.98  -3.49   -57.667125    3             
iter:  15  00:04:55  -7.11  -3.58   -57.667120    3             
iter:  16  00:04:59  -6.50  -3.68   -57.667115    3             
iter:  17  00:05:02  -7.34  -3.75   -57.667114    2             
iter:  18  00:05:05  -7.39  -3.82   -57.667113    2             
iter:  19  00:05:08  -7.54  -3.96   -57.667114    3             
iter:  20  00:05:11  -8.94  -4.17   -57.667114    2             

Converged after 20 iterations.

Dipole moment: (-0.715472, 0.412566, -2.143275) |e|*Ang

Energy contributions relative to reference atoms: (reference = -8360.339860)

Kinetic:        +72.184774
Potential:      -53.053786
External:        +0.000000
XC:             -76.466506
Entropy (-ST):   -0.014639
Local:           -0.324276
--------------------------
Free energy:    -57.674433
Extrapolated:   -57.667114

Fermi level: -0.87422

Showing only first 2 kpts
 Kpt  Band  Eigenvalues  Occupancy
  0    14     -1.06042    0.01650
  0    15     -0.63605    0.00001
  0    16     -0.63599    0.00001
  0    17      0.37471    0.00000

  1    14     -1.17326    0.03306
  1    15     -0.82231    0.00498
  1    16     -0.74079    0.00038
  1    17      0.59304    0.00000


No gap

Forces in eV/Ang:
  0 Li   -0.00002    0.00001   -0.04134
  1 Li   -0.00018   -0.00010   -0.17191
  2 N     0.00005   -0.00003    0.01325
  3 Li   -0.00013    0.00028   -0.17191
  4 Li   -0.00005    0.00003   -0.16140
  5 Li   -0.00019   -0.00010   -0.02358
  6 N     0.00004   -0.00002    0.00875
  7 Li   -0.00013    0.00029   -0.02358
  8 Li   -0.00004    0.00002   -0.05093
  9 Li   -0.00018   -0.00010   -0.05351
 10 N     0.00004   -0.00002    0.05119
 11 Li   -0.00013    0.00029   -0.05351
 12 Li   -0.00003    0.00002    0.16935
 13 Li   -0.00018   -0.00007    0.03788
 14 N     0.00003   -0.00002    0.54011
 15 Li   -0.00014    0.00026    0.03789

System changes: positions 

Initializing position-dependent things.

Density initialized from wave functions
                      
                      
                      
                      
         Li           
       Li   N         
                      
            Li        
         Li           
            N         
       Li             
            Li        
                      
         Li           
       Li   N         
                      
            Li        
                      
         Li N         
       Li             
                      
            Li        
                      
                      
                      
                      

Positions:
   0 Li     1.753346    1.012335    1.740272    ( 0.0000,  0.0000,  0.0000)
   1 Li    -0.000023    0.000052    3.716074    ( 0.0000,  0.0000,  0.0000)
   2 N      1.753271    1.012379    3.656897    ( 0.0000,  0.0000,  0.0000)
   3 Li    -0.000049    2.024650    3.716074    ( 0.0000,  0.0000,  0.0000)
   4 Li     1.753342    1.012338    5.581311    ( 0.0000,  0.0000,  0.0000)
   5 Li    -0.000023    0.000052    7.478990    ( 0.0000,  0.0000,  0.0000)
   6 N      1.753269    1.012380    7.454695    ( 0.0000,  0.0000,  0.0000)
   7 Li    -0.000050    2.024650    7.478990    ( 0.0000,  0.0000,  0.0000)
   8 Li     1.753342    1.012337    9.328845    ( 0.0000,  0.0000,  0.0000)
   9 Li    -0.000023    0.000052   11.212901    ( 0.0000,  0.0000,  0.0000)
  10 N      1.753270    1.012379   11.180825    ( 0.0000,  0.0000,  0.0000)
  11 Li    -0.000050    2.024650   11.212901    ( 0.0000,  0.0000,  0.0000)
  12 Li     1.753344    1.012336   13.042295    ( 0.0000,  0.0000,  0.0000)
  13 Li    -0.000024    0.000055   15.109670    ( 0.0000,  0.0000,  0.0000)
  14 N      1.753275    1.012377   14.912437    ( 0.0000,  0.0000,  0.0000)
  15 Li    -0.000050    2.024648   15.109670    ( 0.0000,  0.0000,  0.0000)

Unit cell:
           periodic     x           y           z      points  spacing
  1. axis:    yes    3.506710    0.000000    0.000000    20     0.1518
  2. axis:    yes   -1.753380    3.036943    0.000000    20     0.1518
  3. axis:    yes    0.000000    0.000000   29.936001   160     0.1871

  Lengths:   3.506710   3.506760  29.936001
  Angles:   90.000000  90.000000 120.000000

Effective grid spacing dv^(1/3) = 0.1708

                     log10-error:    total        iterations:
           time      wfs    density  energy       fermi  poisson
iter:   1  00:05:19  -2.27          -57.780445    28            
iter:   2  00:05:22  -3.21  -1.70   -58.012498    31            
iter:   3  00:05:26  -3.67  -1.29   -57.694256    31            
iter:   4  00:05:29  -4.31  -2.15   -57.692820    4             
iter:   5  00:05:32  -4.51  -2.13   -57.684490    4             
iter:   6  00:05:35  -4.38  -2.49   -57.685210    3             
iter:   7  00:05:38  -4.59  -2.27   -57.688618    4             
iter:   8  00:05:41  -4.92  -2.23   -57.682954    4             
iter:   9  00:05:45  -5.79  -2.53   -57.682687    3             
iter:  10  00:05:48  -5.95  -2.60   -57.681903    3             
iter:  11  00:05:51  -6.36  -3.13   -57.682044    2             
iter:  12  00:05:54  -6.45  -2.96   -57.682113    3             
iter:  13  00:05:57  -7.24  -2.86   -57.681913    3             
iter:  14  00:06:00  -6.14  -3.26   -57.681942    3             
iter:  15  00:06:03  -7.44  -3.27   -57.681901    3             
iter:  16  00:06:06  -7.92  -3.69   -57.681903    2             
iter:  17  00:06:10  -7.92  -3.67   -57.681898    3             
iter:  18  00:06:13  -7.97  -3.91   -57.681898    2             
iter:  19  00:06:16  -7.60  -3.92   -57.681896    2             
iter:  20  00:06:19  -8.61  -4.30   -57.681895    2             

Converged after 20 iterations.

Dipole moment: (-0.710313, 0.409639, -2.220726) |e|*Ang

Energy contributions relative to reference atoms: (reference = -8360.339860)

Kinetic:        +71.390091
Potential:      -52.486953
External:        +0.000000
XC:             -76.254684
Entropy (-ST):   -0.014484
Local:           -0.323106
--------------------------
Free energy:    -57.689136
Extrapolated:   -57.681895

Fermi level: -0.86634

Showing only first 2 kpts
 Kpt  Band  Eigenvalues  Occupancy
  0    14     -1.05507    0.01650
  0    15     -0.61532    0.00000
  0    16     -0.61526    0.00000
  0    17      0.37324    0.00000

  1    14     -1.16785    0.03306
  1    15     -0.80251    0.00352
  1    16     -0.71997    0.00025
  1    17      0.59146    0.00000


No gap

Forces in eV/Ang:
  0 Li   -0.00003    0.00001    0.03999
  1 Li   -0.00017   -0.00007   -0.19106
  2 N     0.00005   -0.00003   -0.05741
  3 Li   -0.00012    0.00024   -0.19106
  4 Li   -0.00007    0.00004   -0.01682
  5 Li   -0.00017   -0.00007   -0.03643
  6 N     0.00005   -0.00003   -0.15527
  7 Li   -0.00013    0.00025   -0.03643
  8 Li   -0.00006    0.00003    0.07148
  9 Li   -0.00017   -0.00007   -0.06340
 10 N     0.00004   -0.00002   -0.02787
 11 Li   -0.00013    0.00025   -0.06340
 12 Li   -0.00005    0.00003    0.41853
 13 Li   -0.00017   -0.00007   -0.00579
 14 N     0.00003   -0.00001    0.40835
 15 Li   -0.00014    0.00025   -0.00579

System changes: positions 

Initializing position-dependent things.

Density initialized from wave functions
                      
                      
                      
                      
         Li           
       Li   N         
                      
            Li        
         Li           
            N         
       Li             
            Li        
                      
         Li           
       Li   N         
                      
            Li        
                      
         Li N         
       Li             
                      
            Li        
                      
                      
                      
                      

Positions:
   0 Li     1.753345    1.012336    1.720361    ( 0.0000,  0.0000,  0.0000)
   1 Li    -0.000036    0.000052    3.703634    ( 0.0000,  0.0000,  0.0000)
   2 N      1.753264    1.012383    3.648284    ( 0.0000,  0.0000,  0.0000)
   3 Li    -0.000061    2.024664    3.703634    ( 0.0000,  0.0000,  0.0000)
   4 Li     1.753338    1.012340    5.567019    ( 0.0000,  0.0000,  0.0000)
   5 Li    -0.000037    0.000053    7.478910    ( 0.0000,  0.0000,  0.0000)
   6 N      1.753261    1.012384    7.456049    ( 0.0000,  0.0000,  0.0000)
   7 Li    -0.000062    2.024664    7.478910    ( 0.0000,  0.0000,  0.0000)
   8 Li     1.753339    1.012339    9.323377    ( 0.0000,  0.0000,  0.0000)
   9 Li    -0.000037    0.000053   11.211276    ( 0.0000,  0.0000,  0.0000)
  10 N      1.753262    1.012384   11.183151    ( 0.0000,  0.0000,  0.0000)
  11 Li    -0.000062    2.024664   11.211276    ( 0.0000,  0.0000,  0.0000)
  12 Li     1.753341    1.012338   13.045627    ( 0.0000,  0.0000,  0.0000)
  13 Li    -0.000037    0.000058   15.135097    ( 0.0000,  0.0000,  0.0000)
  14 N      1.753267    1.012381   14.942217    ( 0.0000,  0.0000,  0.0000)
  15 Li    -0.000063    2.024660   15.135097    ( 0.0000,  0.0000,  0.0000)

Unit cell:
           periodic     x           y           z      points  spacing
  1. axis:    yes    3.506710    0.000000    0.000000    20     0.1518
  2. axis:    yes   -1.753380    3.036943    0.000000    20     0.1518
  3. axis:    yes    0.000000    0.000000   29.936001   160     0.1871

  Lengths:   3.506710   3.506760  29.936001
  Angles:   90.000000  90.000000 120.000000

Effective grid spacing dv^(1/3) = 0.1708

                     log10-error:    total        iterations:
           time      wfs    density  energy       fermi  poisson
iter:   1  00:06:26  -2.29          -57.808841    31            
iter:   2  00:06:30  -3.18  -1.66   -58.102742    32            
iter:   3  00:06:33  -3.63  -1.23   -57.708561    32            
iter:   4  00:06:37  -4.26  -2.19   -57.709305    4             
iter:   5  00:06:40  -4.38  -2.09   -57.700335    4             
iter:   6  00:06:46  -4.23  -2.31   -57.700071    3             
iter:   7  00:06:49  -5.28  -2.22   -57.696284    4             
iter:   8  00:06:52  -4.72  -2.63   -57.706932    3             
iter:   9  00:06:55  -5.30  -2.11   -57.699267    3             
iter:  10  00:06:58  -5.50  -2.30   -57.695829    4             
iter:  11  00:07:01  -5.84  -2.82   -57.695771    3             
iter:  12  00:07:04  -6.62  -2.93   -57.695799    3             
iter:  13  00:07:08  -6.03  -2.92   -57.695631    3             
iter:  14  00:07:11  -6.37  -3.38   -57.695621    3             
iter:  15  00:07:14  -7.47  -3.54   -57.695620    2             
iter:  16  00:07:17  -7.25  -3.53   -57.695613    2             
iter:  17  00:07:20  -7.31  -3.75   -57.695613    2             
iter:  18  00:07:23  -7.16  -3.74   -57.695610    2             
iter:  19  00:07:26  -7.92  -3.95   -57.695609    2             
iter:  20  00:07:29  -8.06  -4.10   -57.695610    2             

Converged after 20 iterations.

Dipole moment: (-0.704253, 0.406279, -2.285108) |e|*Ang

Energy contributions relative to reference atoms: (reference = -8360.339860)

Kinetic:        +70.735495
Potential:      -52.022123
External:        +0.000000
XC:             -76.074913
Entropy (-ST):   -0.014416
Local:           -0.326861
--------------------------
Free energy:    -57.702818
Extrapolated:   -57.695610

Fermi level: -0.86851

Showing only first 2 kpts
 Kpt  Band  Eigenvalues  Occupancy
  0    14     -1.06148    0.01650
  0    15     -0.61223    0.00000
  0    16     -0.61219    0.00000
  0    17      0.36186    0.00000

  1    14     -1.17417    0.03306
  1    15     -0.79971    0.00303
  1    16     -0.71688    0.00021
  1    17      0.58079    0.00000


No gap

Forces in eV/Ang:
  0 Li   -0.00004    0.00002    0.08912
  1 Li   -0.00013   -0.00001   -0.19130
  2 N     0.00001   -0.00001   -0.14013
  3 Li   -0.00011    0.00015   -0.19130
  4 Li   -0.00009    0.00005    0.10193
  5 Li   -0.00014   -0.00000   -0.04764
  6 N     0.00001   -0.00001   -0.26883
  7 Li   -0.00012    0.00015   -0.04764
  8 Li   -0.00008    0.00004    0.15683
  9 Li   -0.00013   -0.00001   -0.05992
 10 N     0.00001   -0.00000   -0.06470
 11 Li   -0.00011    0.00015   -0.05992
 12 Li   -0.00007    0.00004    0.55911
 13 Li   -0.00015   -0.00004   -0.00640
 14 N    -0.00001    0.00001    0.23836
 15 Li   -0.00012    0.00019   -0.00640

System changes: positions 

Initializing position-dependent things.

Density initialized from wave functions
                      
                      
                      
                      
         Li           
       Li   N         
                      
            Li        
         Li           
            N         
       Li             
            Li        
                      
         Li           
       Li   N         
                      
            Li        
                      
         Li N         
       Li             
                      
            Li        
                      
                      
                      
                      

Positions:
   0 Li     1.753343    1.012337    1.697991    ( 0.0000,  0.0000,  0.0000)
   1 Li    -0.000055    0.000053    3.685547    ( 0.0000,  0.0000,  0.0000)
   2 N      1.753255    1.012388    3.635812    ( 0.0000,  0.0000,  0.0000)
   3 Li    -0.000077    2.024683    3.685547    ( 0.0000,  0.0000,  0.0000)
   4 Li     1.753332    1.012343    5.551152    ( 0.0000,  0.0000,  0.0000)
   5 Li    -0.000056    0.000054    7.477957    ( 0.0000,  0.0000,  0.0000)
   6 N      1.753252    1.012390    7.453760    ( 0.0000,  0.0000,  0.0000)
   7 Li    -0.000078    2.024684    7.477957    ( 0.0000,  0.0000,  0.0000)
   8 Li     1.753334    1.012342    9.319040    ( 0.0000,  0.0000,  0.0000)
   9 Li    -0.000056    0.000054   11.208354    ( 0.0000,  0.0000,  0.0000)
  10 N      1.753252    1.012389   11.185461    ( 0.0000,  0.0000,  0.0000)
  11 Li    -0.000078    2.024683   11.208354    ( 0.0000,  0.0000,  0.0000)
  12 Li     1.753337    1.012340   13.058257    ( 0.0000,  0.0000,  0.0000)
  13 Li    -0.000056    0.000062   15.165400    ( 0.0000,  0.0000,  0.0000)
  14 N      1.753257    1.012387   14.982217    ( 0.0000,  0.0000,  0.0000)
  15 Li    -0.000080    2.024677   15.165401    ( 0.0000,  0.0000,  0.0000)

Unit cell:
           periodic     x           y           z      points  spacing
  1. axis:    yes    3.506710    0.000000    0.000000    20     0.1518
  2. axis:    yes   -1.753380    3.036943    0.000000    20     0.1518
  3. axis:    yes    0.000000    0.000000   29.936001   160     0.1871

  Lengths:   3.506710   3.506760  29.936001
  Angles:   90.000000  90.000000 120.000000

Effective grid spacing dv^(1/3) = 0.1708

                     log10-error:    total        iterations:
           time      wfs    density  energy       fermi  poisson
iter:   1  00:07:36  -2.07          -57.942202    4             
iter:   2  00:07:39  -2.98  -1.54   -58.348022    34            
iter:   3  00:07:43  -3.41  -1.12   -57.744056    31            
iter:   4  00:07:47  -3.91  -1.96   -57.747862    4             
iter:   5  00:07:49  -4.40  -1.88   -57.735408    4             
iter:   6  00:07:52  -3.87  -1.95   -57.716616    4             
iter:   7  00:07:56  -4.78  -2.22   -57.714481    4             
iter:   8  00:07:59  -4.75  -2.40   -57.722839    3             
iter:   9  00:08:02  -5.28  -2.09   -57.713025    4             
iter:  10  00:08:04  -5.35  -2.55   -57.712302    3             
iter:  11  00:08:08  -5.37  -2.99   -57.712296    3             
iter:  12  00:08:11  -6.22  -3.11   -57.712340    3             
iter:  13  00:08:14  -6.20  -3.01   -57.712286    3             
iter:  14  00:08:17  -6.02  -3.30   -57.712334    3             
iter:  15  00:08:20  -6.99  -3.10   -57.712311    2             
iter:  16  00:08:24  -6.58  -3.19   -57.712287    2             
iter:  17  00:08:27  -6.99  -3.34   -57.712270    3             
iter:  18  00:08:30  -7.24  -3.63   -57.712268    3             
iter:  19  00:08:33  -7.77  -3.83   -57.712267    2             
iter:  20  00:08:37  -7.83  -3.93   -57.712267    3             
iter:  21  00:08:40  -8.42  -4.10   -57.712267    2             

Converged after 21 iterations.

Dipole moment: (-0.696147, 0.401796, -2.357111) |e|*Ang

Energy contributions relative to reference atoms: (reference = -8360.339860)

Kinetic:        +69.936983
Potential:      -51.456171
External:        +0.000000
XC:             -75.859866
Entropy (-ST):   -0.014378
Local:           -0.326024
--------------------------
Free energy:    -57.719456
Extrapolated:   -57.712267

Fermi level: -0.87209

Showing only first 2 kpts
 Kpt  Band  Eigenvalues  Occupancy
  0    14     -1.06550    0.01650
  0    15     -0.61342    0.00000
  0    16     -0.61340    0.00000
  0    17      0.34972    0.00000

  1    14     -1.17806    0.03306
  1    15     -0.80105    0.00283
  1    16     -0.71812    0.00019
  1    17      0.57036    0.00000


No gap

Forces in eV/Ang:
  0 Li   -0.00005    0.00003    0.12890
  1 Li   -0.00008    0.00008   -0.18238
  2 N    -0.00005    0.00003   -0.22339
  3 Li   -0.00009    0.00001   -0.18238
  4 Li   -0.00011    0.00006    0.19371
  5 Li   -0.00008    0.00009   -0.06601
  6 N    -0.00005    0.00003   -0.32652
  7 Li   -0.00009    0.00001   -0.06601
  8 Li   -0.00010    0.00006    0.20518
  9 Li   -0.00008    0.00008   -0.04404
 10 N    -0.00005    0.00003   -0.04868
 11 Li   -0.00009    0.00002   -0.04404
 12 Li   -0.00009    0.00005    0.61460
 13 Li   -0.00011    0.00002    0.00634
 14 N    -0.00007    0.00004    0.01324
 15 Li   -0.00009    0.00010    0.00634

System changes: positions 

Initializing position-dependent things.

Density initialized from wave functions
                      
                      
                      
                      
         Li           
       Li   N         
                      
            Li        
                      
         Li           
       Li   N         
                      
            Li        
                      
         Li N         
       Li             
                      
            Li        
         Li           
            N         
       Li             
            Li        
                      
                      
                      
                      
                      

Positions:
   0 Li     1.753340    1.012338    1.677166    ( 0.0000,  0.0000,  0.0000)
   1 Li    -0.000075    0.000056    3.664859    ( 0.0000,  0.0000,  0.0000)
   2 N      1.753245    1.012393    3.620114    ( 0.0000,  0.0000,  0.0000)
   3 Li    -0.000095    2.024702    3.664859    ( 0.0000,  0.0000,  0.0000)
   4 Li     1.753325    1.012347    5.537685    ( 0.0000,  0.0000,  0.0000)
   5 Li    -0.000076    0.000056    7.476020    ( 0.0000,  0.0000,  0.0000)
   6 N      1.753242    1.012395    7.447300    ( 0.0000,  0.0000,  0.0000)
   7 Li    -0.000096    2.024703    7.476020    ( 0.0000,  0.0000,  0.0000)
   8 Li     1.753328    1.012345    9.317260    ( 0.0000,  0.0000,  0.0000)
   9 Li    -0.000075    0.000056   11.204904    ( 0.0000,  0.0000,  0.0000)
  10 N      1.753242    1.012395   11.187538    ( 0.0000,  0.0000,  0.0000)
  11 Li    -0.000095    2.024702   11.204904    ( 0.0000,  0.0000,  0.0000)
  12 Li     1.753332    1.012343   13.078938    ( 0.0000,  0.0000,  0.0000)
  13 Li    -0.000076    0.000066   15.196184    ( 0.0000,  0.0000,  0.0000)
  14 N      1.753246    1.012393   15.022217    ( 0.0000,  0.0000,  0.0000)
  15 Li    -0.000099    2.024696   15.196185    ( 0.0000,  0.0000,  0.0000)

Unit cell:
           periodic     x           y           z      points  spacing
  1. axis:    yes    3.506710    0.000000    0.000000    20     0.1518
  2. axis:    yes   -1.753380    3.036943    0.000000    20     0.1518
  3. axis:    yes    0.000000    0.000000   29.936001   160     0.1871

  Lengths:   3.506710   3.506760  29.936001
  Angles:   90.000000  90.000000 120.000000

Effective grid spacing dv^(1/3) = 0.1708

                     log10-error:    total        iterations:
           time      wfs    density  energy       fermi  poisson
iter:   1  00:08:48  -2.01          -58.069557    26            
iter:   2  00:08:51  -2.82  -1.46   -58.671561    32            
iter:   3  00:08:54  -3.22  -1.06   -57.773130    33            
iter:   4  00:08:57  -3.94  -1.91   -57.757551    5             
iter:   5  00:09:00  -4.32  -1.92   -57.752107    3             
iter:   6  00:09:03  -3.86  -1.96   -57.732172    5             
iter:   7  00:09:07  -4.41  -2.60   -57.734575    3             
iter:   8  00:09:10  -5.29  -2.22   -57.730865    4             
iter:   9  00:09:13  -5.14  -2.71   -57.745753    3             
iter:  10  00:09:16  -5.16  -2.05   -57.735994    3             
iter:  11  00:09:19  -4.84  -2.21   -57.731808    4             
iter:  12  00:09:22  -5.66  -2.53   -57.730711    3             
iter:  13  00:09:25  -5.86  -2.89   -57.730645    3             
iter:  14  00:09:28  -6.30  -3.00   -57.730657    3             
iter:  15  00:09:32  -5.79  -3.05   -57.731133    3             
iter:  16  00:09:35  -6.31  -2.70   -57.730574    3             
iter:  17  00:09:38  -7.28  -3.66   -57.730573    2             
iter:  18  00:09:40  -7.02  -3.69   -57.730570    3             
iter:  19  00:09:43  -8.05  -3.84   -57.730571    2             
iter:  20  00:09:47  -7.35  -3.74   -57.730569    3             
iter:  21  00:09:50  -8.80  -4.19   -57.730569    2             

Converged after 21 iterations.

Dipole moment: (-0.688521, 0.397580, -2.426911) |e|*Ang

Energy contributions relative to reference atoms: (reference = -8360.339860)

Kinetic:        +69.145557
Potential:      -50.895077
External:        +0.000000
XC:             -75.650462
Entropy (-ST):   -0.014373
Local:           -0.323401
--------------------------
Free energy:    -57.737755
Extrapolated:   -57.730569

Fermi level: -0.87521

Showing only first 2 kpts
 Kpt  Band  Eigenvalues  Occupancy
  0    14     -1.06599    0.01650
  0    15     -0.61643    0.00000
  0    16     -0.61641    0.00000
  0    17      0.33673    0.00000

  1    14     -1.17842    0.03306
  1    15     -0.80420    0.00283
  1    16     -0.72118    0.00019
  1    17      0.55954    0.00000


No gap

Forces in eV/Ang:
  0 Li   -0.00006    0.00004    0.14877
  1 Li   -0.00002    0.00016   -0.16740
  2 N    -0.00011    0.00006   -0.25985
  3 Li   -0.00006   -0.00011   -0.16740
  4 Li   -0.00012    0.00007    0.22126
  5 Li   -0.00003    0.00017   -0.08579
  6 N    -0.00010    0.00006   -0.30059
  7 Li   -0.00007   -0.00011   -0.08579
  8 Li   -0.00012    0.00007    0.19642
  9 Li   -0.00003    0.00017   -0.01893
 10 N    -0.00010    0.00006    0.00908
 11 Li   -0.00007   -0.00011   -0.01893
 12 Li   -0.00011    0.00006    0.56834
 13 Li   -0.00007    0.00008    0.02572
 14 N    -0.00013    0.00008   -0.13173
 15 Li   -0.00007    0.00000    0.02572

System changes: positions 

Initializing position-dependent things.

Density initialized from wave functions
                      
                      
                      
                      
         Li           
       Li   N         
                      
            Li        
                      
         Li           
       Li   N         
                      
            Li        
                      
         Li N         
       Li             
                      
            Li        
         Li           
            N         
       Li             
            Li        
                      
                      
                      
                      
                      

Positions:
   0 Li     1.753337    1.012340    1.655679    ( 0.0000,  0.0000,  0.0000)
   1 Li    -0.000095    0.000061    3.641439    ( 0.0000,  0.0000,  0.0000)
   2 N      1.753233    1.012400    3.600427    ( 0.0000,  0.0000,  0.0000)
   3 Li    -0.000114    2.024720    3.641439    ( 0.0000,  0.0000,  0.0000)
   4 Li     1.753316    1.012352    5.525419    ( 0.0000,  0.0000,  0.0000)
   5 Li    -0.000097    0.000061    7.473112    ( 0.0000,  0.0000,  0.0000)
   6 N      1.753229    1.012403    7.437975    ( 0.0000,  0.0000,  0.0000)
   7 Li    -0.000115    2.024721    7.473112    ( 0.0000,  0.0000,  0.0000)
   8 Li     1.753320    1.012350    9.316953    ( 0.0000,  0.0000,  0.0000)
   9 Li    -0.000096    0.000061   11.201389    ( 0.0000,  0.0000,  0.0000)
  10 N      1.753229    1.012403   11.190153    ( 0.0000,  0.0000,  0.0000)
  11 Li    -0.000115    2.024721   11.201389    ( 0.0000,  0.0000,  0.0000)
  12 Li     1.753325    1.012347   13.105313    ( 0.0000,  0.0000,  0.0000)
  13 Li    -0.000098    0.000072   15.230442    ( 0.0000,  0.0000,  0.0000)
  14 N      1.753232    1.012401   15.062217    ( 0.0000,  0.0000,  0.0000)
  15 Li    -0.000120    2.024714   15.230442    ( 0.0000,  0.0000,  0.0000)

Unit cell:
           periodic     x           y           z      points  spacing
  1. axis:    yes    3.506710    0.000000    0.000000    20     0.1518
  2. axis:    yes   -1.753380    3.036943    0.000000    20     0.1518
  3. axis:    yes    0.000000    0.000000   29.936001   160     0.1871

  Lengths:   3.506710   3.506760  29.936001
  Angles:   90.000000  90.000000 120.000000

Effective grid spacing dv^(1/3) = 0.1708

                     log10-error:    total        iterations:
           time      wfs    density  energy       fermi  poisson
iter:   1  00:09:57  -1.92          -58.240533    5             
iter:   2  00:10:01  -2.76  -1.42   -58.553406    33            
iter:   3  00:10:04  -3.18  -1.07   -57.823306    33            
iter:   4  00:10:07  -3.87  -1.82   -57.767413    4             
iter:   5  00:10:10  -4.12  -2.07   -57.765854    3             
iter:   6  00:10:13  -3.90  -2.04   -57.751175    5             
iter:   7  00:10:16  -4.84  -2.53   -57.750809    3             
iter:   8  00:10:19  -4.89  -2.51   -57.750248    3             
iter:   9  00:10:22  -4.86  -2.69   -57.755306    3             
iter:  10  00:10:26  -5.89  -2.20   -57.752773    3             
iter:  11  00:10:29  -5.00  -2.31   -57.750041    4             
iter:  12  00:10:33  -6.16  -2.81   -57.749902    3             
iter:  13  00:10:35  -5.21  -2.97   -57.750155    3             
iter:  14  00:10:38  -6.59  -2.78   -57.749924    3             
iter:  15  00:10:41  -6.07  -3.03   -57.749845    3             
iter:  16  00:10:45  -6.89  -3.42   -57.749841    3             
iter:  17  00:10:48  -6.42  -3.56   -57.749841    3             
iter:  18  00:10:51  -7.37  -3.69   -57.749840    2             
iter:  19  00:10:54  -6.92  -3.72   -57.749838    3             
iter:  20  00:10:58  -7.93  -4.01   -57.749837    2             
iter:  21  00:11:01  -8.19  -4.13   -57.749838    2             

Converged after 21 iterations.

Dipole moment: (-0.681411, 0.393624, -2.499514) |e|*Ang

Energy contributions relative to reference atoms: (reference = -8360.339860)

Kinetic:        +68.330783
Potential:      -50.315022
External:        +0.000000
XC:             -75.435509
Entropy (-ST):   -0.014372
Local:           -0.322903
--------------------------
Free energy:    -57.757024
Extrapolated:   -57.749838

Fermi level: -0.87563

Showing only first 2 kpts
 Kpt  Band  Eigenvalues  Occupancy
  0    14     -1.06029    0.01649
  0    15     -0.61695    0.00000
  0    16     -0.61690    0.00000
  0    17      0.32279    0.00000

  1    14     -1.17258    0.03306
  1    15     -0.80499    0.00287
  1    16     -0.72173    0.00019
  1    17      0.54778    0.00000


No gap

Forces in eV/Ang:
  0 Li   -0.00007    0.00004    0.15358
  1 Li    0.00002    0.00022   -0.15152
  2 N    -0.00016    0.00009   -0.25620
  3 Li   -0.00004   -0.00022   -0.15152
  4 Li   -0.00014    0.00008    0.20314
  5 Li    0.00002    0.00023   -0.10564
  6 N    -0.00015    0.00008   -0.23176
  7 Li   -0.00005   -0.00021   -0.10564
  8 Li   -0.00015    0.00009    0.15942
  9 Li    0.00001    0.00023    0.01357
 10 N    -0.00014    0.00008    0.07491
 11 Li   -0.00005   -0.00021    0.01357
 12 Li   -0.00013    0.00008    0.47387
 13 Li   -0.00003    0.00013    0.03714
 14 N    -0.00018    0.00010   -0.18556
 15 Li   -0.00004   -0.00009    0.03714

System changes: positions 

Initializing position-dependent things.

Density initialized from wave functions
                      
                      
                      
                      
         Li           
       Li   N         
                      
            Li        
                      
         Li           
       Li   N         
                      
            Li        
                      
         Li N         
       Li             
                      
            Li        
         Li           
            N         
       Li             
                      
            Li        
                      
                      
                      
                      

Positions:
   0 Li     1.753333    1.012343    1.633435    ( 0.0000,  0.0000,  0.0000)
   1 Li    -0.000116    0.000068    3.616241    ( 0.0000,  0.0000,  0.0000)
   2 N      1.753219    1.012409    3.578086    ( 0.0000,  0.0000,  0.0000)
   3 Li    -0.000134    2.024736    3.616241    ( 0.0000,  0.0000,  0.0000)
   4 Li     1.753306    1.012358    5.513460    ( 0.0000,  0.0000,  0.0000)
   5 Li    -0.000119    0.000069    7.469320    ( 0.0000,  0.0000,  0.0000)
   6 N      1.753214    1.012412    7.427634    ( 0.0000,  0.0000,  0.0000)
   7 Li    -0.000136    2.024738    7.469320    ( 0.0000,  0.0000,  0.0000)
   8 Li     1.753310    1.012356    9.317093    ( 0.0000,  0.0000,  0.0000)
   9 Li    -0.000118    0.000069   11.198264    ( 0.0000,  0.0000,  0.0000)
  10 N      1.753214    1.012412   11.193862    ( 0.0000,  0.0000,  0.0000)
  11 Li    -0.000135    2.024737   11.198264    ( 0.0000,  0.0000,  0.0000)
  12 Li     1.753317    1.012352   13.134297    ( 0.0000,  0.0000,  0.0000)
  13 Li    -0.000121    0.000080   15.267536    ( 0.0000,  0.0000,  0.0000)
  14 N      1.753215    1.012411   15.102217    ( 0.0000,  0.0000,  0.0000)
  15 Li    -0.000141    2.024732   15.267537    ( 0.0000,  0.0000,  0.0000)

Unit cell:
           periodic     x           y           z      points  spacing
  1. axis:    yes    3.506710    0.000000    0.000000    20     0.1518
  2. axis:    yes   -1.753380    3.036943    0.000000    20     0.1518
  3. axis:    yes    0.000000    0.000000   29.936001   160     0.1871

  Lengths:   3.506710   3.506760  29.936001
  Angles:   90.000000  90.000000 120.000000

Effective grid spacing dv^(1/3) = 0.1708

                     log10-error:    total        iterations:
           time      wfs    density  energy       fermi  poisson
iter:   1  00:11:08  -1.87          -58.282262    6             
iter:   2  00:11:11  -2.74  -1.42   -58.557174    32            
iter:   3  00:11:14  -3.19  -1.06   -57.844903    23            
iter:   4  00:11:17  -3.83  -1.81   -57.787021    4             
iter:   5  00:11:20  -4.07  -2.04   -57.783924    3             
iter:   6  00:11:23  -3.87  -2.03   -57.768779    5             
iter:   7  00:11:26  -4.92  -2.44   -57.768039    3             
iter:   8  00:11:30  -4.89  -2.51   -57.768461    3             
iter:   9  00:11:33  -5.05  -2.40   -57.769389    4             
iter:  10  00:11:36  -5.17  -2.37   -57.767015    4             
iter:  11  00:11:39  -5.31  -2.86   -57.767030    3             
iter:  12  00:11:42  -5.97  -2.92   -57.767079    3             
iter:  13  00:11:45  -5.60  -2.88   -57.767039    3             
iter:  14  00:11:49  -6.10  -2.98   -57.767144    3             
iter:  15  00:11:51  -6.54  -2.93   -57.767008    3             
iter:  16  00:11:55  -6.47  -3.12   -57.766962    3             
iter:  17  00:11:58  -6.89  -3.42   -57.766955    2             
iter:  18  00:12:02  -7.04  -3.66   -57.766955    2             
iter:  19  00:12:05  -6.96  -3.75   -57.766953    3             
iter:  20  00:12:08  -7.32  -3.70   -57.766955    3             
iter:  21  00:12:11  -7.78  -3.72   -57.766951    3             
iter:  22  00:12:14  -8.19  -3.88   -57.766950    3             
iter:  23  00:12:17  -8.10  -4.21   -57.766950    2             

Converged after 23 iterations.

Dipole moment: (-0.674611, 0.389804, -2.575067) |e|*Ang

Energy contributions relative to reference atoms: (reference = -8360.339860)

Kinetic:        +67.513597
Potential:      -49.732612
External:        +0.000000
XC:             -75.217967
Entropy (-ST):   -0.014358
Local:           -0.322789
--------------------------
Free energy:    -57.774129
Extrapolated:   -57.766950

Fermi level: -0.87296

Showing only first 2 kpts
 Kpt  Band  Eigenvalues  Occupancy
  0    14     -1.04955    0.01648
  0    15     -0.61296    0.00000
  0    16     -0.61289    0.00000
  0    17      0.30816    0.00000

  1    14     -1.16171    0.03306
  1    15     -0.80140    0.00279
  1    16     -0.71779    0.00019
  1    17      0.53515    0.00000


No gap

Forces in eV/Ang:
  0 Li   -0.00009    0.00005    0.15410
  1 Li    0.00006    0.00026   -0.13682
  2 N    -0.00019    0.00011   -0.21797
  3 Li   -0.00001   -0.00029   -0.13682
  4 Li   -0.00016    0.00009    0.16587
  5 Li    0.00005    0.00027   -0.12342
  6 N    -0.00018    0.00010   -0.15797
  7 Li   -0.00003   -0.00028   -0.12342
  8 Li   -0.00017    0.00010    0.12024
  9 Li    0.00005    0.00027    0.05033
 10 N    -0.00016    0.00009    0.12204
 11 Li   -0.00003   -0.00028    0.05033
 12 Li   -0.00015    0.00009    0.37619
 13 Li    0.00000    0.00017    0.04210
 14 N    -0.00021    0.00012   -0.21454
 15 Li   -0.00003   -0.00015    0.04210

System changes: positions 

Initializing position-dependent things.

Density initialized from wave functions
                      
                      
                      
                      
         Li           
       Li   N         
                      
            Li        
                      
         Li           
       Li   N         
                      
            Li        
                      
         Li N         
       Li             
                      
            Li        
         Li           
            N         
       Li             
                      
            Li        
                      
                      
                      
                      

Positions:
   0 Li     1.753327    1.012346    1.611555    ( 0.0000,  0.0000,  0.0000)
   1 Li    -0.000138    0.000078    3.589017    ( 0.0000,  0.0000,  0.0000)
   2 N      1.753202    1.012418    3.553671    ( 0.0000,  0.0000,  0.0000)
   3 Li    -0.000154    2.024751    3.589017    ( 0.0000,  0.0000,  0.0000)
   4 Li     1.753294    1.012365    5.501909    ( 0.0000,  0.0000,  0.0000)
   5 Li    -0.000141    0.000080    7.464215    ( 0.0000,  0.0000,  0.0000)
   6 N      1.753197    1.012422    7.416281    ( 0.0000,  0.0000,  0.0000)
   7 Li    -0.000157    2.024753    7.464216    ( 0.0000,  0.0000,  0.0000)
   8 Li     1.753299    1.012362    9.317852    ( 0.0000,  0.0000,  0.0000)
   9 Li    -0.000140    0.000079   11.195777    ( 0.0000,  0.0000,  0.0000)
  10 N      1.753197    1.012421   11.199003    ( 0.0000,  0.0000,  0.0000)
  11 Li    -0.000156    2.024752   11.195777    ( 0.0000,  0.0000,  0.0000)
  12 Li     1.753307    1.012358   13.166696    ( 0.0000,  0.0000,  0.0000)
  13 Li    -0.000145    0.000090   15.306418    ( 0.0000,  0.0000,  0.0000)
  14 N      1.753196    1.012422   15.142217    ( 0.0000,  0.0000,  0.0000)
  15 Li    -0.000164    2.024749   15.306419    ( 0.0000,  0.0000,  0.0000)

Unit cell:
           periodic     x           y           z      points  spacing
  1. axis:    yes    3.506710    0.000000    0.000000    20     0.1518
  2. axis:    yes   -1.753380    3.036943    0.000000    20     0.1518
  3. axis:    yes    0.000000    0.000000   29.936001   160     0.1871

  Lengths:   3.506710   3.506760  29.936001
  Angles:   90.000000  90.000000 120.000000

Effective grid spacing dv^(1/3) = 0.1708

                     log10-error:    total        iterations:
           time      wfs    density  energy       fermi  poisson
iter:   1  00:12:24  -1.82          -58.369385    5             
iter:   2  00:12:27  -2.72  -1.40   -58.462638    34            
iter:   3  00:12:31  -3.21  -1.08   -57.875780    33            
iter:   4  00:12:34  -3.76  -1.74   -57.803751    4             
iter:   5  00:12:37  -4.06  -2.01   -57.796987    3             
iter:   6  00:12:40  -3.87  -2.06   -57.782904    5             
iter:   7  00:12:43  -4.89  -2.41   -57.782044    3             
iter:   8  00:12:46  -4.87  -2.48   -57.782667    3             
iter:   9  00:12:49  -4.98  -2.37   -57.783035    4             
iter:  10  00:12:52  -5.20  -2.38   -57.780878    4             
iter:  11  00:12:55  -5.28  -2.86   -57.780919    3             
iter:  12  00:12:58  -5.94  -2.89   -57.780968    3             
iter:  13  00:13:01  -5.51  -2.86   -57.780903    3             
iter:  14  00:13:05  -6.25  -3.00   -57.780861    3             
iter:  15  00:13:08  -6.56  -3.30   -57.780901    3             
iter:  16  00:13:11  -6.29  -3.07   -57.780831    3             
iter:  17  00:13:14  -7.12  -3.50   -57.780830    2             
iter:  18  00:13:17  -6.91  -3.62   -57.780831    2             
iter:  19  00:13:20  -7.05  -3.76   -57.780833    3             
iter:  20  00:13:23  -7.77  -3.59   -57.780829    2             
iter:  21  00:13:26  -7.71  -3.76   -57.780827    2             
iter:  22  00:13:29  -7.66  -4.03   -57.780826    3             
iter:  23  00:13:32  -8.10  -3.97   -57.780825    2             
iter:  24  00:13:35  -9.18  -4.47   -57.780825    2             

Converged after 24 iterations.

Dipole moment: (-0.668071, 0.386083, -2.651061) |e|*Ang

Energy contributions relative to reference atoms: (reference = -8360.339860)

Kinetic:        +66.716980
Potential:      -49.161941
External:        +0.000000
XC:             -75.005169
Entropy (-ST):   -0.014344
Local:           -0.323524
--------------------------
Free energy:    -57.787998
Extrapolated:   -57.780825

Fermi level: -0.86936

Showing only first 2 kpts
 Kpt  Band  Eigenvalues  Occupancy
  0    14     -1.03310    0.01646
  0    15     -0.60783    0.00000
  0    16     -0.60775    0.00000
  0    17      0.29301    0.00000

  1    14     -1.14514    0.03305
  1    15     -0.79670    0.00269
  1    16     -0.71271    0.00018
  1    17      0.52188    0.00000


No gap

Forces in eV/Ang:
  0 Li   -0.00010    0.00006    0.14234
  1 Li    0.00009    0.00027   -0.11782
  2 N    -0.00022    0.00012   -0.15468
  3 Li    0.00000   -0.00033   -0.11782
  4 Li   -0.00017    0.00010    0.11267
  5 Li    0.00008    0.00028   -0.13802
  6 N    -0.00020    0.00012   -0.07435
  7 Li   -0.00001   -0.00032   -0.13802
  8 Li   -0.00019    0.00011    0.07951
  9 Li    0.00007    0.00028    0.09083
 10 N    -0.00019    0.00011    0.15467
 11 Li   -0.00001   -0.00032    0.09083
 12 Li   -0.00017    0.00010    0.26926
 13 Li    0.00002    0.00020    0.04398
 14 N    -0.00025    0.00014   -0.27164
 15 Li   -0.00001   -0.00020    0.04398

System changes: positions 

Initializing position-dependent things.

Density initialized from wave functions
                      
                      
                      
                      
         Li           
       Li   N         
                      
            Li        
                      
         Li           
       Li   N         
                      
            Li        
                      
         Li N         
       Li             
                      
            Li        
         Li           
            N         
       Li             
                      
            Li        
                      
                      
                      
                      

Positions:
   0 Li     1.753320    1.012350    1.594028    ( 0.0000,  0.0000,  0.0000)
   1 Li    -0.000157    0.000093    3.559225    ( 0.0000,  0.0000,  0.0000)
   2 N      1.753182    1.012430    3.526651    ( 0.0000,  0.0000,  0.0000)
   3 Li    -0.000175    2.024758    3.559226    ( 0.0000,  0.0000,  0.0000)
   4 Li     1.753278    1.012375    5.493472    ( 0.0000,  0.0000,  0.0000)
   5 Li    -0.000161    0.000096    7.456058    ( 0.0000,  0.0000,  0.0000)
   6 N      1.753176    1.012434    7.402483    ( 0.0000,  0.0000,  0.0000)
   7 Li    -0.000179    2.024761    7.456058    ( 0.0000,  0.0000,  0.0000)
   8 Li     1.753283    1.012372    9.321074    ( 0.0000,  0.0000,  0.0000)
   9 Li    -0.000160    0.000095   11.195112    ( 0.0000,  0.0000,  0.0000)
  10 N      1.753177    1.012433   11.206759    ( 0.0000,  0.0000,  0.0000)
  11 Li    -0.000177    2.024760   11.195112    ( 0.0000,  0.0000,  0.0000)
  12 Li     1.753294    1.012365   13.206696    ( 0.0000,  0.0000,  0.0000)
  13 Li    -0.000168    0.000103   15.344562    ( 0.0000,  0.0000,  0.0000)
  14 N      1.753173    1.012435   15.176385    ( 0.0000,  0.0000,  0.0000)
  15 Li    -0.000187    2.024762   15.344563    ( 0.0000,  0.0000,  0.0000)

Unit cell:
           periodic     x           y           z      points  spacing
  1. axis:    yes    3.506710    0.000000    0.000000    20     0.1518
  2. axis:    yes   -1.753380    3.036943    0.000000    20     0.1518
  3. axis:    yes    0.000000    0.000000   29.936001   160     0.1871

  Lengths:   3.506710   3.506760  29.936001
  Angles:   90.000000  90.000000 120.000000

Effective grid spacing dv^(1/3) = 0.1708

                     log10-error:    total        iterations:
           time      wfs    density  energy       fermi  poisson
iter:   1  00:13:43  -1.79          -58.461424    4             
iter:   2  00:13:46  -2.69  -1.39   -58.336534    34            
iter:   3  00:13:49  -3.25  -1.15   -57.899205    29            
iter:   4  00:13:52  -3.73  -1.70   -57.817835    4             
iter:   5  00:13:55  -4.10  -1.97   -57.802745    5             
iter:   6  00:13:58  -3.88  -2.21   -57.806278    3             
iter:   7  00:14:01  -4.51  -2.04   -57.799044    4             
iter:   8  00:14:05  -5.33  -2.20   -57.793099    4             
iter:   9  00:14:08  -5.08  -2.63   -57.799252    3             
iter:  10  00:14:11  -4.45  -2.16   -57.800113    4             
iter:  11  00:14:15  -5.70  -2.21   -57.794394    4             
iter:  12  00:14:18  -5.46  -2.46   -57.793155    4             
iter:  13  00:14:21  -5.57  -2.65   -57.794489    4             
iter:  14  00:14:24  -5.90  -2.47   -57.794249    3             
iter:  15  00:14:27  -5.52  -2.50   -57.792736    4             
iter:  16  00:14:30  -6.24  -2.90   -57.792532    3             
iter:  17  00:14:33  -6.90  -3.50   -57.792529    3             
iter:  18  00:14:36  -6.85  -3.74   -57.792561    3             
iter:  19  00:14:40  -6.94  -3.25   -57.792570    3             
iter:  20  00:14:43  -7.82  -3.31   -57.792529    3             
iter:  21  00:14:46  -8.58  -4.16   -57.792530    2             

Converged after 21 iterations.

Dipole moment: (-0.663557, 0.383413, -2.708627) |e|*Ang

Energy contributions relative to reference atoms: (reference = -8360.339860)

Kinetic:        +66.038392
Potential:      -48.673920
External:        +0.000000
XC:             -74.826809
Entropy (-ST):   -0.014366
Local:           -0.323010
--------------------------
Free energy:    -57.799712
Extrapolated:   -57.792530

Fermi level: -0.86331

Showing only first 2 kpts
 Kpt  Band  Eigenvalues  Occupancy
  0    14     -1.00229    0.01637
  0    15     -0.60124    0.00000
  0    16     -0.60115    0.00000
  0    17      0.28138    0.00000

  1    14     -1.11421    0.03305
  1    15     -0.79062    0.00269
  1    16     -0.70619    0.00017
  1    17      0.51172    0.00000


No gap

Forces in eV/Ang:
  0 Li   -0.00011    0.00006    0.09734
  1 Li    0.00008    0.00023   -0.08952
[...]
  5 Li   -0.00007    0.00011    0.01358
  6 N    -0.00011    0.00007    0.06609
  7 Li   -0.00008   -0.00002    0.01358
  8 Li   -0.00005    0.00003   -0.04990
  9 Li   -0.00006    0.00010    0.00490
 10 N    -0.00011    0.00006    0.04983
 11 Li   -0.00008   -0.00002    0.00490
 12 Li   -0.00010    0.00006    0.06757
 13 Li   -0.00008    0.00007   -0.02756
 14 N    -0.00011    0.00006   -0.04972
 15 Li   -0.00008    0.00002   -0.02755

System changes: positions 

Initializing position-dependent things.

Density initialized from wave functions
                      
                      
                      
                      
         Li           
       Li   N         
                      
            Li        
                      
         Li           
       Li   N         
                      
            Li        
                      
         Li N         
       Li             
                      
            Li        
                      
         Li N         
       Li             
                      
            Li        
                      
                      
                      
                      

Positions:
   0 Li     1.753210    1.012414    1.541012    ( 0.0000,  0.0000,  0.0000)
   1 Li    -0.000236    0.000157    3.462539    ( 0.0000,  0.0000,  0.0000)
   2 N      1.753079    1.012490    3.447401    ( 0.0000,  0.0000,  0.0000)
   3 Li    -0.000258    2.024789    3.462540    ( 0.0000,  0.0000,  0.0000)
   4 Li     1.753116    1.012468    5.437102    ( 0.0000,  0.0000,  0.0000)
   5 Li    -0.000255    0.000168    7.379481    ( 0.0000,  0.0000,  0.0000)
   6 N      1.753063    1.012499    7.359206    ( 0.0000,  0.0000,  0.0000)
   7 Li    -0.000277    2.024800    7.379482    ( 0.0000,  0.0000,  0.0000)
   8 Li     1.753108    1.012473    9.352861    ( 0.0000,  0.0000,  0.0000)
   9 Li    -0.000249    0.000164   11.308227    ( 0.0000,  0.0000,  0.0000)
  10 N      1.753070    1.012495   11.287063    ( 0.0000,  0.0000,  0.0000)
  11 Li    -0.000271    2.024796   11.308227    ( 0.0000,  0.0000,  0.0000)
  12 Li     1.753132    1.012459   13.285298    ( 0.0000,  0.0000,  0.0000)
  13 Li    -0.000289    0.000190   15.420289    ( 0.0000,  0.0000,  0.0000)
  14 N      1.753030    1.012518   15.223361    ( 0.0000,  0.0000,  0.0000)
  15 Li    -0.000311    2.024818   15.420296    ( 0.0000,  0.0000,  0.0000)

Unit cell:
           periodic     x           y           z      points  spacing
  1. axis:    yes    3.506710    0.000000    0.000000    20     0.1518
  2. axis:    yes   -1.753380    3.036943    0.000000    20     0.1518
  3. axis:    yes    0.000000    0.000000   29.936001   160     0.1871

  Lengths:   3.506710   3.506760  29.936001
  Angles:   90.000000  90.000000 120.000000

Effective grid spacing dv^(1/3) = 0.1708

                     log10-error:    total        iterations:
           time      wfs    density  energy       fermi  poisson
iter:   1  00:25:41  -3.67          -57.835430    4             
iter:   2  00:25:44  -4.72  -2.43   -57.841730    4             
iter:   3  00:25:47  -5.47  -2.18   -57.834091    5             
iter:   4  00:25:51  -4.71  -2.56   -57.839273    3             
iter:   5  00:25:54  -5.43  -2.20   -57.833116    4             
iter:   6  00:25:57  -5.76  -2.78   -57.833358    3             
iter:   7  00:26:01  -6.07  -2.69   -57.833236    3             
iter:   8  00:26:03  -6.09  -2.73   -57.832756    3             
iter:   9  00:26:07  -6.76  -3.50   -57.832759    3             
iter:  10  00:26:10  -7.38  -3.68   -57.832751    2             
iter:  11  00:26:12  -7.13  -3.84   -57.832758    2             
iter:  12  00:26:15  -8.10  -3.68   -57.832750    2             
iter:  13  00:26:19  -7.51  -3.93   -57.832747    2             
iter:  14  00:26:22  -7.84  -4.21   -57.832746    2             
iter:  15  00:26:25  -8.84  -4.36   -57.832746    2             

Converged after 15 iterations.

Dipole moment: (-0.657784, 0.379700, -2.885796) |e|*Ang

Energy contributions relative to reference atoms: (reference = -8360.339860)

Kinetic:        +64.526495
Potential:      -47.594229
External:        +0.000000
XC:             -74.438114
Entropy (-ST):   -0.014518
Local:           -0.319639
--------------------------
Free energy:    -57.840005
Extrapolated:   -57.832746

Fermi level: -0.84282

Showing only first 2 kpts
 Kpt  Band  Eigenvalues  Occupancy
  0    14     -0.91657    0.01523
  0    15     -0.57450    0.00000
  0    16     -0.57448    0.00000
  0    17      0.26791    0.00000

  1    14     -1.02871    0.03299
  1    15     -0.76393    0.00222
  1    16     -0.67934    0.00014
  1    17      0.49586    0.00000


No gap

Forces in eV/Ang:
  0 Li   -0.00009    0.00005   -0.06387
  1 Li   -0.00005    0.00008    0.00849
  2 N    -0.00009    0.00005   -0.01400
  3 Li   -0.00006   -0.00002    0.00849
  4 Li   -0.00005    0.00003   -0.05257
  5 Li   -0.00007    0.00010    0.01130
  6 N    -0.00011    0.00007    0.08091
  7 Li   -0.00008   -0.00001    0.01130
  8 Li   -0.00005    0.00003   -0.04752
  9 Li   -0.00006    0.00009   -0.00492
 10 N    -0.00011    0.00006    0.05858
 11 Li   -0.00008   -0.00001   -0.00492
 12 Li   -0.00009    0.00005    0.03862
 13 Li   -0.00007    0.00007   -0.02921
 14 N    -0.00011    0.00007   -0.01997
 15 Li   -0.00008    0.00002   -0.02920

System changes: positions 

Initializing position-dependent things.

Density initialized from wave functions
                      
                      
                      
                      
         Li           
       Li   N         
                      
            Li        
                      
         Li           
       Li   N         
                      
            Li        
                      
         Li N         
       Li             
                      
            Li        
         Li           
            N         
       Li             
                      
            Li        
                      
                      
                      
                      

Positions:
   0 Li     1.753201    1.012419    1.536730    ( 0.0000,  0.0000,  0.0000)
   1 Li    -0.000241    0.000162    3.464447    ( 0.0000,  0.0000,  0.0000)
   2 N      1.753074    1.012492    3.443591    ( 0.0000,  0.0000,  0.0000)
   3 Li    -0.000263    2.024790    3.464448    ( 0.0000,  0.0000,  0.0000)
   4 Li     1.753108    1.012473    5.435679    ( 0.0000,  0.0000,  0.0000)
   5 Li    -0.000262    0.000174    7.379033    ( 0.0000,  0.0000,  0.0000)
   6 N      1.753056    1.012503    7.359373    ( 0.0000,  0.0000,  0.0000)
   7 Li    -0.000284    2.024802    7.379034    ( 0.0000,  0.0000,  0.0000)
   8 Li     1.753100    1.012477    9.352751    ( 0.0000,  0.0000,  0.0000)
   9 Li    -0.000254    0.000169   11.313169    ( 0.0000,  0.0000,  0.0000)
  10 N      1.753064    1.012499   11.290155    ( 0.0000,  0.0000,  0.0000)
  11 Li    -0.000277    2.024798   11.313169    ( 0.0000,  0.0000,  0.0000)
  12 Li     1.753122    1.012465   13.288170    ( 0.0000,  0.0000,  0.0000)
  13 Li    -0.000297    0.000194   15.416105    ( 0.0000,  0.0000,  0.0000)
  14 N      1.753023    1.012522   15.218858    ( 0.0000,  0.0000,  0.0000)
  15 Li    -0.000319    2.024822   15.416112    ( 0.0000,  0.0000,  0.0000)

Unit cell:
           periodic     x           y           z      points  spacing
  1. axis:    yes    3.506710    0.000000    0.000000    20     0.1518
  2. axis:    yes   -1.753380    3.036943    0.000000    20     0.1518
  3. axis:    yes    0.000000    0.000000   29.936001   160     0.1871

  Lengths:   3.506710   3.506760  29.936001
  Angles:   90.000000  90.000000 120.000000

Effective grid spacing dv^(1/3) = 0.1708

                     log10-error:    total        iterations:
           time      wfs    density  energy       fermi  poisson
iter:   1  00:26:33  -3.64          -57.839138    4             
iter:   2  00:26:36  -4.35  -2.26   -57.865922    5             
iter:   3  00:26:39  -4.89  -2.01   -57.835858    4             
iter:   4  00:26:42  -5.22  -2.39   -57.835776    4             
iter:   5  00:26:45  -4.96  -2.43   -57.835330    4             
iter:   6  00:26:48  -5.82  -2.46   -57.833593    3             
iter:   7  00:26:51  -5.91  -3.08   -57.835043    3             
iter:   8  00:26:55  -5.95  -2.50   -57.833778    4             
iter:   9  00:26:58  -6.78  -2.82   -57.833473    3             
iter:  10  00:27:01  -7.49  -3.57   -57.833476    3             
iter:  11  00:27:04  -6.92  -3.72   -57.833475    3             
iter:  12  00:27:07  -8.23  -3.83   -57.833470    2             
iter:  13  00:27:10  -8.99  -4.02   -57.833470    2             

Converged after 13 iterations.

Dipole moment: (-0.657693, 0.379619, -2.906278) |e|*Ang

Energy contributions relative to reference atoms: (reference = -8360.339860)

Kinetic:        +64.509222
Potential:      -47.580433
External:        +0.000000
XC:             -74.433872
Entropy (-ST):   -0.014556
Local:           -0.321109
--------------------------
Free energy:    -57.840748
Extrapolated:   -57.833470

Fermi level: -0.84248

Showing only first 2 kpts
 Kpt  Band  Eigenvalues  Occupancy
  0    14     -0.91159    0.01503
  0    15     -0.57570    0.00000
  0    16     -0.57568    0.00000
  0    17      0.26084    0.00000

  1    14     -1.02372    0.03298
  1    15     -0.76496    0.00232
  1    16     -0.68053    0.00015
  1    17      0.48809    0.00000


No gap

Forces in eV/Ang:
  0 Li   -0.00008    0.00005   -0.05456
  1 Li   -0.00006    0.00006   -0.01172
  2 N    -0.00009    0.00005    0.00575
  3 Li   -0.00006    0.00001   -0.01172
  4 Li   -0.00005    0.00003   -0.04788
  5 Li   -0.00007    0.00007    0.01124
  6 N    -0.00011    0.00007    0.06937
  7 Li   -0.00008    0.00002    0.01124
  8 Li   -0.00004    0.00003   -0.02573
  9 Li   -0.00007    0.00007   -0.01245
 10 N    -0.00010    0.00006    0.05758
 11 Li   -0.00008    0.00001   -0.01245
 12 Li   -0.00008    0.00005    0.00413
 13 Li   -0.00007    0.00007   -0.02581
 14 N    -0.00011    0.00007   -0.00385
 15 Li   -0.00008    0.00001   -0.02580

System changes: positions 

Initializing position-dependent things.

Density initialized from wave functions
                      
                      
                      
                      
         Li           
       Li   N         
                      
            Li        
                      
         Li           
       Li   N         
                      
            Li        
                      
         Li N         
       Li             
                      
            Li        
         Li           
            N         
       Li             
                      
            Li        
                      
                      
                      
                      

Positions:
   0 Li     1.753188    1.012427    1.530076    ( 0.0000,  0.0000,  0.0000)
   1 Li    -0.000248    0.000168    3.465237    ( 0.0000,  0.0000,  0.0000)
   2 N      1.753066    1.012497    3.439040    ( 0.0000,  0.0000,  0.0000)
   3 Li    -0.000271    2.024793    3.465238    ( 0.0000,  0.0000,  0.0000)
   4 Li     1.753097    1.012479    5.431957    ( 0.0000,  0.0000,  0.0000)
   5 Li    -0.000271    0.000182    7.377924    ( 0.0000,  0.0000,  0.0000)
   6 N      1.753045    1.012510    7.360965    ( 0.0000,  0.0000,  0.0000)
   7 Li    -0.000295    2.024806    7.377925    ( 0.0000,  0.0000,  0.0000)
   8 Li     1.753089    1.012484    9.352253    ( 0.0000,  0.0000,  0.0000)
   9 Li    -0.000264    0.000177   11.319809    ( 0.0000,  0.0000,  0.0000)
  10 N      1.753053    1.012505   11.295925    ( 0.0000,  0.0000,  0.0000)
  11 Li    -0.000286    2.024802   11.319809    ( 0.0000,  0.0000,  0.0000)
  12 Li     1.753107    1.012474   13.291287    ( 0.0000,  0.0000,  0.0000)
  13 Li    -0.000308    0.000201   15.411593    ( 0.0000,  0.0000,  0.0000)
  14 N      1.753011    1.012529   15.214808    ( 0.0000,  0.0000,  0.0000)
  15 Li    -0.000330    2.024828   15.411602    ( 0.0000,  0.0000,  0.0000)

Unit cell:
           periodic     x           y           z      points  spacing
  1. axis:    yes    3.506710    0.000000    0.000000    20     0.1518
  2. axis:    yes   -1.753380    3.036943    0.000000    20     0.1518
  3. axis:    yes    0.000000    0.000000   29.936001   160     0.1871

  Lengths:   3.506710   3.506760  29.936001
  Angles:   90.000000  90.000000 120.000000

Effective grid spacing dv^(1/3) = 0.1708

                     log10-error:    total        iterations:
           time      wfs    density  energy       fermi  poisson
iter:   1  00:27:18  -3.37          -57.867260    4             
iter:   2  00:27:21  -3.60  -1.89   -57.962635    32            
iter:   3  00:27:24  -4.03  -1.65   -57.836678    5             
iter:   4  00:27:27  -5.00  -2.36   -57.835128    3             
iter:   5  00:27:31  -4.73  -2.64   -57.842627    3             
iter:   6  00:27:34  -5.36  -2.16   -57.833960    4             
iter:   7  00:27:37  -5.71  -3.12   -57.834376    3             
iter:   8  00:27:40  -6.42  -2.75   -57.833908    3             
iter:   9  00:27:43  -6.06  -3.32   -57.833890    3             
iter:  10  00:27:46  -6.88  -3.51   -57.833883    3             
iter:  11  00:27:49  -7.81  -3.59   -57.833884    2             
iter:  12  00:27:53  -6.73  -3.68   -57.833886    3             
iter:  13  00:27:56  -7.97  -3.63   -57.833883    2             
iter:  14  00:27:59  -7.23  -3.73   -57.833877    2             
iter:  15  00:28:02  -7.94  -4.05   -57.833877    2             
iter:  16  00:28:05  -7.83  -4.15   -57.833878    2             
iter:  17  00:28:08  -8.62  -4.23   -57.833878    2             

Converged after 17 iterations.

Dipole moment: (-0.657006, 0.379181, -2.935924) |e|*Ang

Energy contributions relative to reference atoms: (reference = -8360.339860)

Kinetic:        +64.459674
Potential:      -47.546134
External:        +0.000000
XC:             -74.419702
Entropy (-ST):   -0.014618
Local:           -0.320408
--------------------------
Free energy:    -57.841187
Extrapolated:   -57.833878

Fermi level: -0.84281

Showing only first 2 kpts
 Kpt  Band  Eigenvalues  Occupancy
  0    14     -0.90560    0.01471
  0    15     -0.57700    0.00000
  0    16     -0.57698    0.00000
  0    17      0.25166    0.00000

  1    14     -1.01774    0.03296
  1    15     -0.76603    0.00237
  1    16     -0.68184    0.00015
  1    17      0.47799    0.00000


No gap

Forces in eV/Ang:
  0 Li   -0.00008    0.00005   -0.03476
  1 Li   -0.00007    0.00004   -0.03311
  2 N    -0.00009    0.00005    0.03506
  3 Li   -0.00007    0.00004   -0.03311
  4 Li   -0.00004    0.00003   -0.02170
  5 Li   -0.00008    0.00005    0.01580
  6 N    -0.00010    0.00006    0.02865
  7 Li   -0.00008    0.00005    0.01580
  8 Li   -0.00004    0.00002    0.01103
  9 Li   -0.00008    0.00006   -0.02026
 10 N    -0.00010    0.00006    0.02404
 11 Li   -0.00008    0.00004   -0.02026
 12 Li   -0.00008    0.00004   -0.02215
 13 Li   -0.00007    0.00007   -0.02130
 14 N    -0.00012    0.00007    0.02793
 15 Li   -0.00008    0.00002   -0.02128

Timing:                                      incl.     excl.
-------------------------------------------------------------------
Density initialized from wave functions:    23.149    23.143   1.2% |
 Symmetrize density:                         0.006     0.006   0.0% |
Forces:                                     89.782    89.782   4.8% |-|
Hamiltonian:                                27.259     0.154   0.0% |
 Atomic:                                     4.413     4.413   0.2% |
  XC Correction:                             0.000     0.000   0.0% |
 Calculate atomic Hamiltonians:              6.927     6.927   0.4% |
 Communicate:                                1.826     1.826   0.1% |
 Initialize Hamiltonian:                     0.002     0.002   0.0% |
 Poisson:                                    0.194     0.194   0.0% |
 XC 3D grid:                                13.743    13.743   0.7% |
LCAO initialization:                         3.711     0.065   0.0% |
 LCAO eigensolver:                           1.053     0.001   0.0% |
  Calculate projections:                     0.000     0.000   0.0% |
  DenseAtomicCorrection:                     0.002     0.002   0.0% |
  Distribute overlap matrix:                 0.000     0.000   0.0% |
  Orbital Layouts:                           0.004     0.004   0.0% |
  Potential matrix:                          1.035     1.035   0.1% |
  Sum over cells:                            0.011     0.011   0.0% |
 LCAO to grid:                               2.007     2.007   0.1% |
 Set positions (LCAO WFS):                   0.586     0.123   0.0% |
  Basic WFS set positions:                   0.001     0.001   0.0% |
  Basis functions set positions:             0.000     0.000   0.0% |
  P tci:                                     0.161     0.161   0.0% |
  ST tci:                                    0.183     0.183   0.0% |
  mktci:                                     0.118     0.118   0.0% |
PWDescriptor:                                0.265     0.265   0.0% |
Redistribute:                                0.047     0.047   0.0% |
SCF-cycle:                                1705.703   558.051  29.8% |-----------|
 Davidson:                                 292.125    61.884   3.3% ||
  Apply H:                                  44.660    43.017   2.3% ||
   HMM T:                                    1.644     1.644   0.1% |
  Subspace diag:                            66.126     0.679   0.0% |
   calc_h_matrix:                           51.104     3.205   0.2% |
    Apply H:                                47.899    44.351   2.4% ||
     HMM T:                                  3.548     3.548   0.2% |
   diagonalize:                              0.935     0.935   0.0% |
   rotate_psi:                              13.407    13.407   0.7% |
  calc. matrices:                          103.899    14.325   0.8% |
   Apply H:                                 89.574    86.431   4.6% |-|
    HMM T:                                   3.142     3.142   0.2% |
  diagonalize:                               1.651     1.651   0.1% |
  rotate_psi:                               13.906    13.906   0.7% |
 Density:                                  328.988     0.054   0.0% |
  Atomic density matrices:                   5.218     5.218   0.3% |
  Mix:                                     244.358   244.358  13.0% |----|
  Multipole moments:                         0.581     0.581   0.0% |
  Pseudo density:                           78.777    78.586   4.2% |-|
   Symmetrize density:                       0.192     0.192   0.0% |
 Hamiltonian:                              525.362     3.151   0.2% |
  Atomic:                                   74.344    74.341   4.0% |-|
   XC Correction:                            0.003     0.003   0.0% |
  Calculate atomic Hamiltonians:           118.748   118.748   6.3% |--|
  Communicate:                              39.606    39.606   2.1% ||
  Poisson:                                   3.445     3.445   0.2% |
  XC 3D grid:                              286.069   286.069  15.3% |-----|
 Orthonormalize:                             1.177     0.011   0.0% |
  calc_s_matrix:                             0.063     0.063   0.0% |
  inverse-cholesky:                          0.026     0.026   0.0% |
  projections:                               0.852     0.852   0.0% |
  rotate_psi_s:                              0.225     0.225   0.0% |
Set symmetry:                                0.005     0.005   0.0% |
Other:                                      22.742    22.742   1.2% |
-------------------------------------------------------------------
Total:                                              1872.662 100.0%

Memory usage: 281.44 MiB
Date: Tue Aug 24 00:28:11 2021
