
  ___ ___ ___ _ _ _  
 |   |   |_  | | | | 
 | | | | | . | | | | 
 |__ |  _|___|_____|  20.1.0
 |___|_|             

User:   jywang@lbnode02
Date:   Sun Jul 25 23:09:54 2021
Arch:   x86_64
Pid:    40794
Python: 3.7.7
gpaw:   /home/jywang/intel/intelpython3/lib/python3.7/site-packages/gpaw
_gpaw:  /home/jywang/intel/intelpython3/lib/python3.7/site-packages/
        _gpaw.cpython-37m-x86_64-linux-gnu.so
ase:    /home/jywang/intel/intelpython3/lib/python3.7/site-packages/ase (version 3.19.0)
numpy:  /home/jywang/intel/intelpython3/lib/python3.7/site-packages/numpy (version 1.17.5)
scipy:  /home/jywang/intel/intelpython3/lib/python3.7/site-packages/scipy (version 1.3.3)
libxc:  4.3.4
units:  Angstrom and eV
cores: 32
OMP_NUM_THREADS: 1

Input parameters:
  convergence: {eigenstates: 1e-08}
  kpts: [3 3 1]
  mode: {ecut: 450.00000000000006,
         gammacentered: False,
         name: pw}
  occupations: {name: fermi-dirac,
                width: 0.01}
  random: True
  xc: PBE

System changes: positions, numbers, cell, pbc, initial_charges, initial_magmoms 

Initialize ...

Li-setup:
  name: Lithium
  id: 830b4218f175192f93f959cfc0aad614
  Z: 3
  valence: 1
  core: 2
  charge: 0.0
  file: /home/jywang/gpaw_paws/gpaw-setups-0.9.20000/Li.PBE.gz
  compensation charges: gauss, rc=0.33, lmax=2
  cutoffs: 1.91(filt), 2.55(core),
  valence states:
                energy  radius
    2s(1.00)    -2.874   1.058
    2p(0.00)    -1.090   1.058
    *s          24.337   1.058

  Using partial waves for Li as LCAO basis

N-setup:
  name: Nitrogen
  id: f7500608b86eaa90eef8b1d9a670dc53
  Z: 7
  valence: 5
  core: 2
  charge: 0.0
  file: /home/jywang/gpaw_paws/gpaw-setups-0.9.20000/N.PBE.gz
  compensation charges: gauss, rc=0.18, lmax=2
  cutoffs: 1.11(filt), 0.96(core),
  valence states:
                energy  radius
    2s(2.00)   -18.583   0.603
    2p(3.00)    -7.089   0.529
    *s           8.629   0.603
    *p          20.123   0.529
    *d           0.000   0.577

  Using partial waves for N as LCAO basis

Reference energy: -75445.846558

Spin-paired calculation

Occupation numbers:
  Fermi-Dirac: width=0.0100 eV

Convergence criteria:
  Maximum total energy change: 0.0005 eV / electron
  Maximum integral of absolute density change: 0.0001 electrons
  Maximum integral of absolute eigenstate change: 1e-08 eV^2
  Maximum number of iterations: 333

Symmetries present (total): 1

  ( 1  0  0)
  ( 0  1  0)
  ( 0  0  1)

9 k-points: 3 x 3 x 1 Monkhorst-Pack grid
5 k-points in the irreducible part of the Brillouin zone
       k-points in crystal coordinates                weights
   0:     0.00000000    0.00000000    0.00000000          1/9
   1:     0.00000000    0.33333333    0.00000000          2/9
   2:     0.33333333   -0.33333333    0.00000000          2/9
   3:     0.33333333    0.00000000    0.00000000          2/9
   4:     0.33333333    0.33333333    0.00000000          2/9

Wave functions: Plane wave expansion
  Cutoff energy: 450.000 eV
  Number of coefficients (min, max): 59082, 59119
  Pulay-stress correction: 0.000000 eV/Ang^3 (de/decut=0.000000)
  Using FFTW library
  ScaLapack parameters: grid=1x1, blocksize=None
  Wavefunction extrapolation:
    Improved wavefunction reuse through dual PAW basis 

Eigensolver
   Davidson(niter=2, smin=None, normalize=True) 

Densities:
  Coarse grid: 54*54*147 grid
  Fine grid: 108*108*294 grid
  Total Charge: 0.000000 

Density mixing:
  Method: separate
  Backend: pulay
  Linear mixing parameter: 0.05
  Mixing with 5 old densities
  Damping of long wave oscillations: 50 

Hamiltonian:
  XC and Coulomb potentials evaluated on a 108*108*294 grid
  Using the PBE Exchange-Correlation functional
 

XC parameters: PBE with 2 nearest neighbor stencil

Memory estimate:
  Process memory now: 284.99 MiB
  Calculator: 999.99 MiB
    Density: 6.19 MiB
      Arrays: 2.68 MiB
      Localized functions: 2.45 MiB
      Mixer: 1.06 MiB
    Hamiltonian: 1.81 MiB
      Arrays: 1.75 MiB
      XC: 0.00 MiB
      Poisson: 0.00 MiB
      vbar: 0.06 MiB
    Wavefunctions: 991.99 MiB
      Arrays psit_nG: 802.86 MiB
      Eigensolver: 169.92 MiB
      Projections: 0.43 MiB
      Projectors: 1.20 MiB
      PW-descriptor: 17.59 MiB

Total number of cores used: 32
Domain decomposition: 2 x 2 x 8

Number of atoms: 145
Number of atomic orbitals: 580
Number of bands in calculation: 178
Number of valence electrons: 289
Bands to converge: occupied

... initialized

Initializing position-dependent things.

Density initialized from atomic densities
Creating initial wave functions:
  178 bands from LCAO basis set

                                                  
                                                  
                                                  
                                                  
                                                  
                                                  
            Li      Li     Lii                    
           Li  N   Li   N  Li   N                 
              Li  N   Li  N    Li N               
             LiLiLi  Li LLi   LiLLi               
               Li   N        N  Li   N            
            Li N  LiLi  LiLiLi  N  Li             
           Li      Li      Li                     
              Li  N LiLi  N  LiLi N  Li           
             LiLiLi  Li LLi   LiLLi               
               Li   N   Li   N  Li   N            
            Li N  LiLi  N LiLi  N Li              
           Li Li   LLiLi   LiLiLi    Li           
                  N       N       N               
             LiLiLi  Li LLi   LiLLi               
            Li Li LiNi  LiLiLN  LiLi N            
               N        N       N                 
           Li Li   LLiLi   LiLiLi    Li           
             LiLi N  Li LiN   LiLiN               
                 Li N    Li  N   Li  N            
               Li Li    LiLi    LiLi              
                                                  
                    Li       Li      Li           
                                                  
                                                  
                                                  
                                                  

Positions:
   0 Li     3.500100    4.446747   24.432627    ( 0.0000,  0.0000,  0.0000)
   1 Li     1.717695    0.991763    8.714294    ( 0.0000,  0.0000,  0.0000)
   2 Li     5.153197    0.991763    8.714294    ( 0.0000,  0.0000,  0.0000)
   3 Li     8.588596    0.991763    8.714294    ( 0.0000,  0.0000,  0.0000)
   4 Li    -0.000071    3.967140    8.714294    ( 0.0000,  0.0000,  0.0000)
   5 Li     3.435431    3.967140    8.714294    ( 0.0000,  0.0000,  0.0000)
   6 Li     6.870830    3.967140    8.714294    ( 0.0000,  0.0000,  0.0000)
   7 Li    -1.717786    6.942428    8.714294    ( 0.0000,  0.0000,  0.0000)
   8 Li     1.717717    6.942428    8.714294    ( 0.0000,  0.0000,  0.0000)
   9 Li     5.153115    6.942428    8.714294    ( 0.0000,  0.0000,  0.0000)
  10 Li     0.000000    0.000000   10.653504    ( 0.0000,  0.0000,  0.0000)
  11 Li     3.435502    0.000000   10.653504    ( 0.0000,  0.0000,  0.0000)
  12 Li     6.870901    0.000000   10.653504    ( 0.0000,  0.0000,  0.0000)
  13 Li    -0.000010    1.983525   10.653504    ( 0.0000,  0.0000,  0.0000)
  14 Li     3.435389    1.983525   10.653504    ( 0.0000,  0.0000,  0.0000)
  15 Li     6.870891    1.983525   10.653504    ( 0.0000,  0.0000,  0.0000)
  16 Li    -1.717766    2.975377   10.653504    ( 0.0000,  0.0000,  0.0000)
  17 Li     1.717736    2.975377   10.653504    ( 0.0000,  0.0000,  0.0000)
  18 Li     5.153135    2.975377   10.653504    ( 0.0000,  0.0000,  0.0000)
  19 Li    -1.717776    4.958903   10.653504    ( 0.0000,  0.0000,  0.0000)
  20 Li     1.717623    4.958903   10.653504    ( 0.0000,  0.0000,  0.0000)
  21 Li     5.153125    4.958903   10.653504    ( 0.0000,  0.0000,  0.0000)
  22 Li    -3.435480    5.950666   10.653504    ( 0.0000,  0.0000,  0.0000)
  23 Li     0.000022    5.950666   10.653504    ( 0.0000,  0.0000,  0.0000)
  24 Li     3.435421    5.950666   10.653504    ( 0.0000,  0.0000,  0.0000)
  25 Li    -3.435490    7.934191   10.653504    ( 0.0000,  0.0000,  0.0000)
  26 Li    -0.000091    7.934191   10.653504    ( 0.0000,  0.0000,  0.0000)
  27 Li     3.435411    7.934191   10.653504    ( 0.0000,  0.0000,  0.0000)
  28 Li     1.717695    0.991763   12.627088    ( 0.0000,  0.0000,  0.0000)
  29 Li     5.153197    0.991763   12.627088    ( 0.0000,  0.0000,  0.0000)
  30 Li     8.588596    0.991763   12.627088    ( 0.0000,  0.0000,  0.0000)
  31 Li    -0.000071    3.967140   12.627088    ( 0.0000,  0.0000,  0.0000)
  32 Li     3.435431    3.967140   12.627088    ( 0.0000,  0.0000,  0.0000)
  33 Li     6.870830    3.967140   12.627088    ( 0.0000,  0.0000,  0.0000)
  34 Li    -1.717786    6.942428   12.627088    ( 0.0000,  0.0000,  0.0000)
  35 Li     1.717717    6.942428   12.627088    ( 0.0000,  0.0000,  0.0000)
  36 Li     5.153115    6.942428   12.627088    ( 0.0000,  0.0000,  0.0000)
  37 Li     0.000000    0.000000   14.576373    ( 0.0000,  0.0000,  0.0000)
  38 Li     3.435502    0.000000   14.576373    ( 0.0000,  0.0000,  0.0000)
  39 Li     6.870901    0.000000   14.576373    ( 0.0000,  0.0000,  0.0000)
  40 Li    -0.000010    1.983525   14.576373    ( 0.0000,  0.0000,  0.0000)
  41 Li     3.435389    1.983525   14.576373    ( 0.0000,  0.0000,  0.0000)
  42 Li     6.870891    1.983525   14.576373    ( 0.0000,  0.0000,  0.0000)
  43 Li    -1.717766    2.975377   14.576373    ( 0.0000,  0.0000,  0.0000)
  44 Li     1.717736    2.975377   14.576373    ( 0.0000,  0.0000,  0.0000)
  45 Li     5.153135    2.975377   14.576373    ( 0.0000,  0.0000,  0.0000)
  46 Li    -1.717776    4.958903   14.576373    ( 0.0000,  0.0000,  0.0000)
  47 Li     1.717623    4.958903   14.576373    ( 0.0000,  0.0000,  0.0000)
  48 Li     5.153125    4.958903   14.576373    ( 0.0000,  0.0000,  0.0000)
  49 Li    -3.435480    5.950666   14.576373    ( 0.0000,  0.0000,  0.0000)
  50 Li     0.000022    5.950666   14.576373    ( 0.0000,  0.0000,  0.0000)
  51 Li     3.435421    5.950666   14.576373    ( 0.0000,  0.0000,  0.0000)
  52 Li    -3.435490    7.934191   14.576373    ( 0.0000,  0.0000,  0.0000)
  53 Li    -0.000091    7.934191   14.576373    ( 0.0000,  0.0000,  0.0000)
  54 Li     3.435411    7.934191   14.576373    ( 0.0000,  0.0000,  0.0000)
  55 Li     1.717014    0.990502   16.539692    ( 0.0000,  0.0000,  0.0000)
  56 Li     5.153856    0.990460   16.539720    ( 0.0000,  0.0000,  0.0000)
  57 Li     8.588601    0.992115   16.539034    ( 0.0000,  0.0000,  0.0000)
  58 Li    -0.001798    3.966938   16.540281    ( 0.0000,  0.0000,  0.0000)
  59 Li     3.435372    3.966839   16.555534    ( 0.0000,  0.0000,  0.0000)
  60 Li     6.872602    3.966911   16.540592    ( 0.0000,  0.0000,  0.0000)
  61 Li    -1.717718    6.942528   16.539047    ( 0.0000,  0.0000,  0.0000)
  62 Li     1.716737    6.943845   16.541983    ( 0.0000,  0.0000,  0.0000)
  63 Li     5.154026    6.943874   16.542471    ( 0.0000,  0.0000,  0.0000)
  64 Li    -0.000437    0.000916   18.492047    ( 0.0000,  0.0000,  0.0000)
  65 Li     3.435497   -0.000335   18.494455    ( 0.0000,  0.0000,  0.0000)
  66 Li     6.871516    0.000835   18.491973    ( 0.0000,  0.0000,  0.0000)
  67 Li    -0.000523    1.983234   18.494172    ( 0.0000,  0.0000,  0.0000)
  68 Li     3.435331    1.982107   18.499127    ( 0.0000,  0.0000,  0.0000)
  69 Li     6.871188    1.983156   18.494194    ( 0.0000,  0.0000,  0.0000)
  70 Li    -1.717552    2.974807   18.491489    ( 0.0000,  0.0000,  0.0000)
  71 Li     1.716630    2.974898   18.499724    ( 0.0000,  0.0000,  0.0000)
  72 Li     5.154313    2.974932   18.500199    ( 0.0000,  0.0000,  0.0000)
  73 Li    -1.717799    4.959430   18.492046    ( 0.0000,  0.0000,  0.0000)
  74 Li     1.716798    4.959383   18.502055    ( 0.0000,  0.0000,  0.0000)
  75 Li     5.153759    4.959348   18.502523    ( 0.0000,  0.0000,  0.0000)
  76 Li    -3.434855    5.950762   18.495469    ( 0.0000,  0.0000,  0.0000)
  77 Li    -0.000523    5.950746   18.494967    ( 0.0000,  0.0000,  0.0000)
  78 Li     3.435509    5.951638   18.503322    ( 0.0000,  0.0000,  0.0000)
  79 Li    -3.434641    7.934136   18.491818    ( 0.0000,  0.0000,  0.0000)
  80 Li    -0.001033    7.934113   18.491555    ( 0.0000,  0.0000,  0.0000)
  81 Li     3.435270    7.934545   18.496839    ( 0.0000,  0.0000,  0.0000)
  82 Li     1.711557    0.980347   20.465724    ( 0.0000,  0.0000,  0.0000)
  83 Li     5.159191    0.979345   20.465537    ( 0.0000,  0.0000,  0.0000)
  84 Li     8.588538    0.993135   20.465927    ( 0.0000,  0.0000,  0.0000)
  85 Li    -0.020090    3.963407   20.464943    ( 0.0000,  0.0000,  0.0000)
  86 Li     3.432956    3.948239   20.556947    ( 0.0000,  0.0000,  0.0000)
  87 Li     6.894332    3.962264   20.464564    ( 0.0000,  0.0000,  0.0000)
  88 Li    -1.717204    6.942647   20.465819    ( 0.0000,  0.0000,  0.0000)
  89 Li     1.695050    6.968886   20.467049    ( 0.0000,  0.0000,  0.0000)
  90 Li     5.175050    6.971300   20.469091    ( 0.0000,  0.0000,  0.0000)
  91 Li     0.004263    0.000321   22.596519    ( 0.0000,  0.0000,  0.0000)
  92 Li     3.433156   -0.005283   22.592058    ( 0.0000,  0.0000,  0.0000)
  93 Li     6.863029    0.001138   22.595392    ( 0.0000,  0.0000,  0.0000)
  94 Li    -0.006599    1.977554   22.594698    ( 0.0000,  0.0000,  0.0000)
  95 Li     3.437436    1.982845   22.586124    ( 0.0000,  0.0000,  0.0000)
  96 Li     6.882419    1.977069   22.596768    ( 0.0000,  0.0000,  0.0000)
  97 Li    -1.719208    2.976469   22.604109    ( 0.0000,  0.0000,  0.0000)
  98 Li     1.707426    2.977586   22.571526    ( 0.0000,  0.0000,  0.0000)
  99 Li     5.165443    2.976363   22.561770    ( 0.0000,  0.0000,  0.0000)
 100 Li    -1.714749    4.951184   22.590939    ( 0.0000,  0.0000,  0.0000)
 101 Li     1.698010    4.975656   22.467852    ( 0.0000,  0.0000,  0.0000)
 102 Li     5.180272    4.975604   22.413079    ( 0.0000,  0.0000,  0.0000)
 103 Li    -3.418650    5.960850   22.622235    ( 0.0000,  0.0000,  0.0000)
 104 Li    -0.017968    5.959540   22.611399    ( 0.0000,  0.0000,  0.0000)
 105 Li     3.433963    5.989327   22.298118    ( 0.0000,  0.0000,  0.0000)
 106 Li    -3.435691    7.936403   22.602446    ( 0.0000,  0.0000,  0.0000)
 107 Li     0.002375    7.935239   22.603697    ( 0.0000,  0.0000,  0.0000)
 108 Li     3.436852    7.955809   22.640015    ( 0.0000,  0.0000,  0.0000)
 109 N      1.717695    0.991763   10.638094    ( 0.0000,  0.0000,  0.0000)
 110 N      5.153197    0.991763   10.638094    ( 0.0000,  0.0000,  0.0000)
 111 N      8.588596    0.991763   10.638094    ( 0.0000,  0.0000,  0.0000)
 112 N     -0.000071    3.967140   10.638094    ( 0.0000,  0.0000,  0.0000)
 113 N      3.435431    3.967140   10.638094    ( 0.0000,  0.0000,  0.0000)
 114 N      6.870830    3.967140   10.638094    ( 0.0000,  0.0000,  0.0000)
 115 N     -1.717786    6.942428   10.638094    ( 0.0000,  0.0000,  0.0000)
 116 N      1.717717    6.942428   10.638094    ( 0.0000,  0.0000,  0.0000)
 117 N      5.153115    6.942428   10.638094    ( 0.0000,  0.0000,  0.0000)
 118 N      1.717695    0.991763   14.562149    ( 0.0000,  0.0000,  0.0000)
 119 N      5.153197    0.991763   14.562149    ( 0.0000,  0.0000,  0.0000)
 120 N      8.588596    0.991763   14.562149    ( 0.0000,  0.0000,  0.0000)
 121 N     -0.000071    3.967140   14.562149    ( 0.0000,  0.0000,  0.0000)
 122 N      3.435431    3.967140   14.562149    ( 0.0000,  0.0000,  0.0000)
 123 N      6.870830    3.967140   14.562149    ( 0.0000,  0.0000,  0.0000)
 124 N     -1.717786    6.942428   14.562149    ( 0.0000,  0.0000,  0.0000)
 125 N      1.717717    6.942428   14.562149    ( 0.0000,  0.0000,  0.0000)
 126 N      5.153115    6.942428   14.562149    ( 0.0000,  0.0000,  0.0000)
 127 N      1.717311    0.991148   18.473828    ( 0.0000,  0.0000,  0.0000)
 128 N      5.153559    0.991091   18.473946    ( 0.0000,  0.0000,  0.0000)
 129 N      8.588578    0.991907   18.473076    ( 0.0000,  0.0000,  0.0000)
 130 N     -0.000882    3.967136   18.475357    ( 0.0000,  0.0000,  0.0000)
 131 N      3.435398    3.966957   18.531522    ( 0.0000,  0.0000,  0.0000)
 132 N      6.871683    3.967083   18.476275    ( 0.0000,  0.0000,  0.0000)
 133 N     -1.717742    6.942402   18.473165    ( 0.0000,  0.0000,  0.0000)
 134 N      1.717133    6.943277   18.480871    ( 0.0000,  0.0000,  0.0000)
 135 N      5.153631    6.943269   18.482613    ( 0.0000,  0.0000,  0.0000)
 136 N      1.721086    0.996489   22.381615    ( 0.0000,  0.0000,  0.0000)
 137 N      5.149743    0.995748   22.381345    ( 0.0000,  0.0000,  0.0000)
 138 N      8.588197    0.992406   22.384121    ( 0.0000,  0.0000,  0.0000)
 139 N     -0.002929    3.964835   22.379273    ( 0.0000,  0.0000,  0.0000)
 140 N      3.439920    4.001247   22.585411    ( 0.0000,  0.0000,  0.0000)
 141 N      6.876695    3.964165   22.378533    ( 0.0000,  0.0000,  0.0000)
 142 N     -1.717426    6.943760   22.383874    ( 0.0000,  0.0000,  0.0000)
 143 N      1.712933    6.947840   22.381602    ( 0.0000,  0.0000,  0.0000)
 144 N      5.156036    6.946398   22.384695    ( 0.0000,  0.0000,  0.0000)

Unit cell:
           periodic     x           y           z      points  spacing
  1. axis:    yes   10.306300    0.000000    0.000000    54     0.1653
  2. axis:    yes   -5.153194    8.925954    0.000000    54     0.1653
  3. axis:    yes    0.000000    0.000000   29.633400   147     0.2016

  Lengths:  10.306300  10.306700  29.633400
  Angles:   90.000000  90.000000 119.999001

Effective grid spacing dv^(1/3) = 0.1853

                     log10-error:    total        iterations:
           time      wfs    density  energy       fermi  poisson
iter:   1  23:11:18                -595.528101    3             
iter:   2  23:11:38  -0.96  -0.51  -566.937014    5             
iter:   3  23:11:58  -1.21  -0.60  -549.970250    35            
iter:   4  23:12:17  -0.68  -0.63  -516.662288    5             
iter:   5  23:12:36  -0.43  -0.82  -706.240366    40            
iter:   6  23:12:55  -0.84  -0.48  -637.819734    38            
iter:   7  23:13:16  -0.80  -0.49  -517.392567    39            
iter:   8  23:13:35  -1.25  -0.89  -525.044579    36            
iter:   9  23:13:54  -1.47  -0.94  -523.395529    6             
iter:  10  23:14:14  -1.74  -1.17  -510.358351    7             
iter:  11  23:14:33  -3.11  -1.29  -511.635218    5             
iter:  12  23:14:54  -1.57  -1.37  -506.962885    35            
iter:  13  23:15:12  -2.47  -1.23  -508.761849    9             
iter:  14  23:15:30  -2.42  -1.20  -504.065795    31            
iter:  15  23:15:49  -2.92  -1.60  -503.780078    36            
iter:  16  23:16:07  -3.31  -1.57  -503.733996    6             
iter:  17  23:16:26  -3.48  -1.60  -504.583244    6             
iter:  18  23:16:44  -4.48  -1.37  -504.467867    3             
iter:  19  23:17:02  -3.70  -1.39  -504.098183    4             
iter:  20  23:17:20  -3.15  -1.46  -503.672315    36            
iter:  21  23:17:35  -3.84  -1.52  -503.926236    36            
iter:  22  23:17:51  -3.16  -1.48  -503.614723    35            
iter:  23  23:18:12  -3.56  -1.72  -504.258396    35            
iter:  24  23:18:32  -3.70  -1.46  -504.885839    7             
iter:  25  23:18:54  -3.65  -1.41  -504.182472    37            
iter:  26  23:19:13  -3.54  -1.50  -504.232848    33            
iter:  27  23:19:32  -4.06  -1.49  -504.150478    5             
iter:  28  23:19:51  -2.19  -1.51  -503.694204    36            
iter:  29  23:20:11  -3.62  -1.67  -503.291082    6             
iter:  30  23:20:29  -3.89  -1.97  -503.380349    5             
iter:  31  23:20:50  -3.18  -1.89  -503.278830    6             
iter:  32  23:21:09  -4.27  -2.00  -503.278502    3             
iter:  33  23:21:28  -4.25  -2.00  -503.274512    5             
iter:  34  23:21:47  -3.94  -2.06  -503.454766    5             
iter:  35  23:22:07  -3.62  -1.66  -503.230535    6             
iter:  36  23:22:27  -3.46  -2.15  -503.373590    33            
iter:  37  23:22:46  -4.24  -1.95  -503.209438    4             
iter:  38  23:23:05  -3.75  -2.23  -503.216148    5             
iter:  39  23:23:25  -5.10  -2.24  -503.204055    5             
iter:  40  23:23:44  -3.97  -2.27  -503.207683    5             
iter:  41  23:24:04  -4.28  -2.30  -503.211095    3             
iter:  42  23:24:23  -4.18  -2.40  -503.189135    35            
iter:  43  23:24:42  -4.13  -2.63  -503.308331    6             
iter:  44  23:25:02  -4.58  -2.05  -503.189208    4             
iter:  45  23:25:22  -4.82  -2.69  -503.191276    3             
iter:  46  23:25:41  -5.63  -2.80  -503.187680    4             
iter:  47  23:26:00  -6.57  -2.90  -503.187572    3             
iter:  48  23:26:19  -5.97  -2.92  -503.186996    3             
iter:  49  23:26:39  -5.56  -2.98  -503.181741    5             
iter:  50  23:26:58  -5.11  -3.07  -503.199517    4             
iter:  51  23:27:18  -5.17  -2.26  -503.186111    5             
iter:  52  23:27:37  -6.62  -3.01  -503.183480    4             
iter:  53  23:27:56  -6.14  -3.11  -503.181189    4             
iter:  54  23:28:17  -7.25  -3.40  -503.181605    3             
iter:  55  23:28:36  -6.77  -3.40  -503.182677    3             
iter:  56  23:28:54  -7.00  -3.23  -503.182318    3             
iter:  57  23:29:12  -6.85  -3.29  -503.181400    4             
iter:  58  23:29:30  -7.18  -3.55  -503.181032    3             
iter:  59  23:29:49  -6.47  -3.40  -503.182559    4             
iter:  60  23:30:07  -7.43  -3.28  -503.181560    3             
iter:  61  23:30:25  -7.03  -3.58  -503.180945    3             
iter:  62  23:30:43  -7.56  -3.41  -503.181057    3             
iter:  63  23:31:00  -7.83  -3.63  -503.181064    3             
iter:  64  23:31:15  -7.69  -3.69  -503.181421    3             
iter:  65  23:31:36  -8.07  -3.95  -503.181355    3             
iter:  66  23:31:55  -8.24  -4.16  -503.181244    3             

Converged after 66 iterations.

Dipole moment: (-4.116484, 2.486731, 0.091948) |e|*Ang

Energy contributions relative to reference atoms: (reference = -75445.846558)

Kinetic:       +599.970558
Potential:     -407.189423
External:        +0.000000
XC:            -692.602766
Entropy (-ST):   -0.020333
Local:           -3.349446
--------------------------
Free energy:   -503.191411
Extrapolated:  -503.181244

Fermi level: -0.53424

Showing only first 2 kpts
 Kpt  Band  Eigenvalues  Occupancy
  0   142     -0.42567    0.00000
  0   143     -0.27003    0.00000
  0   144     -0.26151    0.00000
  0   145      0.07151    0.00000

  1   142     -0.56011    0.41332
  1   143     -0.55206    0.38040
  1   144     -0.53190    0.19630
  1   145     -0.42104    0.00001


No gap

Forces in eV/Ang:
  0 Li   -0.00729   -0.06638   -0.25047
  1 Li    0.00003    0.00003   -0.02456
  2 Li   -0.00002    0.00007   -0.02455
  3 Li    0.00000    0.00002   -0.02457
  4 Li    0.00005   -0.00003   -0.02457
  5 Li   -0.00002   -0.00000   -0.02710
  6 Li   -0.00003   -0.00001   -0.02459
  7 Li    0.00002   -0.00003   -0.02457
  8 Li    0.00000   -0.00000   -0.02465
  9 Li   -0.00002   -0.00002   -0.02469
 10 Li   -0.00004    0.00020   -0.00957
 11 Li   -0.00072    0.00012   -0.00950
 12 Li   -0.00013    0.00001   -0.00956
 13 Li   -0.00013    0.00041   -0.00950
 14 Li    0.00045   -0.00004   -0.00976
 15 Li   -0.00026    0.00022   -0.00951
 16 Li    0.00033   -0.00037   -0.00954
 17 Li   -0.00062   -0.00025   -0.00976
 18 Li    0.00023   -0.00054   -0.00976
 19 Li    0.00022    0.00020   -0.00953
 20 Li    0.00056   -0.00014   -0.00980
 21 Li    0.00011   -0.00004   -0.00981
 22 Li    0.00017    0.00010   -0.00956
 23 Li   -0.00083    0.00021   -0.00955
 24 Li   -0.00022    0.00005   -0.00984
 25 Li    0.00035    0.00008   -0.00958
 26 Li    0.00059   -0.00021   -0.00957
 27 Li   -0.00006    0.00005   -0.00958
 28 Li   -0.00021   -0.00041   -0.01497
 29 Li    0.00023   -0.00037   -0.01496
 30 Li    0.00000    0.00017   -0.01473
 31 Li   -0.00059   -0.00015   -0.01488
 32 Li   -0.00006   -0.00020   -0.01130
 33 Li    0.00062   -0.00013   -0.01486
 34 Li    0.00005   -0.00001   -0.01474
 35 Li   -0.00041    0.00056   -0.01480
 36 Li    0.00036    0.00053   -0.01476
 37 Li   -0.00092    0.00099    0.00986
 38 Li   -0.00073    0.00013    0.01078
 39 Li    0.00075    0.00074    0.00987
 40 Li   -0.00007    0.00037    0.01077
 41 Li    0.00047   -0.00229    0.01269
 42 Li   -0.00036    0.00013    0.01079
 43 Li    0.00038   -0.00127    0.00940
 44 Li   -0.00263   -0.00127    0.01289
 45 Li    0.00219   -0.00159    0.01298
 46 Li    0.00025    0.00120    0.00978
 47 Li   -0.00140    0.00071    0.01325
 48 Li    0.00204    0.00074    0.01333
 49 Li    0.00040   -0.00012    0.01115
 50 Li   -0.00099   -0.00004    0.01102
 51 Li   -0.00029    0.00199    0.01330
 52 Li    0.00142   -0.00023    0.00972
 53 Li   -0.00040   -0.00052    0.00962
 54 Li   -0.00014    0.00035    0.01134
 55 Li    0.00009    0.00026   -0.01128
 56 Li   -0.00001    0.00024   -0.01099
 57 Li   -0.00007   -0.00006   -0.00857
 58 Li    0.00047    0.00030   -0.01054
 59 Li    0.00019    0.00154    0.04567
 60 Li   -0.00064    0.00031   -0.01001
 61 Li    0.00003   -0.00027   -0.00863
 62 Li    0.00100   -0.00096   -0.00618
 63 Li   -0.00107   -0.00122   -0.00435
 64 Li   -0.00233    0.00237   -0.01499
 65 Li   -0.00102    0.00135   -0.00697
 66 Li   -0.00040    0.00192   -0.01576
 67 Li    0.00373    0.00201   -0.00711
 68 Li    0.00175    0.00094    0.04840
 69 Li   -0.00188    0.00186   -0.00683
 70 Li   -0.00087   -0.00313   -0.01950
 71 Li   -0.00179    0.00121    0.05350
 72 Li   -0.00072    0.00137    0.05685
 73 Li    0.00151    0.00291   -0.01681
 74 Li    0.00383    0.00191    0.07074
 75 Li   -0.00121    0.00134    0.07503
 76 Li   -0.00356   -0.00442    0.00280
 77 Li    0.00108   -0.00420   -0.00133
 78 Li   -0.00113   -0.00308    0.08066
 79 Li    0.00512    0.00211   -0.01633
 80 Li   -0.00222    0.00221   -0.01815
 81 Li    0.00081   -0.00338    0.01137
 82 Li   -0.00167   -0.00755   -0.01997
 83 Li    0.00230   -0.01052   -0.02054
 84 Li   -0.00019   -0.00898    0.00329
 85 Li   -0.03471   -0.00902   -0.04281
 86 Li   -0.01768   -0.13100   -0.09237
 87 Li    0.05164   -0.01312   -0.05484
 88 Li   -0.00256   -0.00215    0.00192
 89 Li   -0.07005    0.08183   -0.10202
 90 Li    0.07246    0.09553   -0.11495
 91 Li    0.03511    0.01031   -0.03667
 92 Li    0.02412    0.03718   -0.03291
 93 Li   -0.00386   -0.00092   -0.04321
 94 Li    0.02214    0.03537   -0.01129
 95 Li   -0.00946   -0.03718    0.04698
 96 Li   -0.06162    0.03156    0.00021
 97 Li    0.02781    0.00497    0.00728
 98 Li   -0.03825   -0.01293    0.06282
 99 Li    0.06727   -0.01308    0.06791
100 Li   -0.02069   -0.00752   -0.04839
101 Li   -0.05521    0.03844    0.02646
102 Li    0.03845    0.02946    0.00137
103 Li   -0.06516   -0.06394    0.12030
104 Li    0.08097   -0.04535    0.07862
105 Li    0.00460    0.06738   -0.02032
106 Li   -0.01029    0.04127   -0.00893
107 Li   -0.02306    0.04879   -0.00060
108 Li   -0.02267   -0.14683    0.19343
109 N     0.00022   -0.00011    0.07575
110 N    -0.00034   -0.00004    0.07575
111 N    -0.00008    0.00017    0.07613
112 N     0.00005   -0.00064    0.07542
113 N    -0.00037   -0.00066   -0.03027
114 N     0.00042   -0.00063    0.07524
115 N     0.00037   -0.00015    0.07620
116 N    -0.00068    0.00019    0.07402
117 N     0.00023    0.00013    0.07338
118 N     0.00019    0.00024   -0.01324
119 N    -0.00026    0.00045   -0.01315
120 N     0.00002    0.00039   -0.01494
121 N     0.00082    0.00009   -0.01080
122 N    -0.00029    0.00012   -0.00196
123 N    -0.00047    0.00018   -0.00926
124 N     0.00036    0.00024   -0.01467
125 N     0.00022   -0.00029   -0.00235
126 N    -0.00045   -0.00033   -0.00013
127 N    -0.00044   -0.00130    0.00998
128 N    -0.00003   -0.00113    0.00871
129 N     0.00028   -0.00031    0.02936
130 N    -0.00262   -0.00195   -0.00026
131 N    -0.00121   -0.00740    0.02237
132 N     0.00406   -0.00200   -0.00513
133 N    -0.00008    0.00091    0.02892
134 N    -0.00611    0.00600   -0.01555
135 N     0.00628    0.00788   -0.01695
136 N    -0.00234    0.02312    0.02504
137 N     0.00385    0.02896    0.02768
138 N     0.00875   -0.00493    0.06183
139 N     0.06123    0.03193    0.01815
140 N     0.00595    0.04262   -0.01556
141 N    -0.07171    0.04253    0.01043
142 N    -0.00581    0.00403    0.05736
143 N     0.06901   -0.06123   -0.03027
144 N    -0.05339   -0.06198   -0.04923

System changes: positions 

Initializing position-dependent things.

Density initialized from wave functions
                                                  
                                                  
                                                  
                                                  
                                                  
                                                  
            Li      Li     Lii                    
           Li  N   Li   N  Li   N                 
              Li  N   Li  N    Li N               
             LiLiLi  Li LLi   LiLLi               
               Li   N        N  Li   N            
            Li N  LiLi  LiLiLi  N  Li             
           Li      Li      Li                     
              Li  N LiLi  N  LiLi N  Li           
             LiLiLi  Li LLi   LiLLi               
               Li   N   Li   N  Li   N            
            Li N  LiLi  N LiLi  N Li              
           Li Li   LLiLi   LiLiLi    Li           
                  N       N       N               
             LiLiLi  Li LLi   LiLLi               
            Li Li LiNi  LiLiLN  LiLi N            
               N        N       N                 
           Li Li   LLiLi   LiLiLi    Li           
             LiLi N  Li LiN   LiLiN               
                 Li N    Li  N   Li  N            
               Li Li    LiLi    LiLi              
                                                  
                    Li       Li      Li           
                                                  
                                                  
                                                  
                                                  

Positions:
   0 Li     3.499996    4.445799   24.429049    ( 0.0000,  0.0000,  0.0000)
   1 Li     1.717695    0.991763    8.714294    ( 0.0000,  0.0000,  0.0000)
   2 Li     5.153197    0.991763    8.714294    ( 0.0000,  0.0000,  0.0000)
   3 Li     8.588596    0.991763    8.714294    ( 0.0000,  0.0000,  0.0000)
   4 Li    -0.000071    3.967140    8.714294    ( 0.0000,  0.0000,  0.0000)
   5 Li     3.435431    3.967140    8.714294    ( 0.0000,  0.0000,  0.0000)
   6 Li     6.870830    3.967140    8.714294    ( 0.0000,  0.0000,  0.0000)
   7 Li    -1.717786    6.942428    8.714294    ( 0.0000,  0.0000,  0.0000)
   8 Li     1.717717    6.942428    8.714294    ( 0.0000,  0.0000,  0.0000)
   9 Li     5.153115    6.942428    8.714294    ( 0.0000,  0.0000,  0.0000)
  10 Li     0.000000    0.000000   10.653504    ( 0.0000,  0.0000,  0.0000)
  11 Li     3.435502    0.000000   10.653504    ( 0.0000,  0.0000,  0.0000)
  12 Li     6.870901    0.000000   10.653504    ( 0.0000,  0.0000,  0.0000)
  13 Li    -0.000010    1.983525   10.653504    ( 0.0000,  0.0000,  0.0000)
  14 Li     3.435389    1.983525   10.653504    ( 0.0000,  0.0000,  0.0000)
  15 Li     6.870891    1.983525   10.653504    ( 0.0000,  0.0000,  0.0000)
  16 Li    -1.717766    2.975377   10.653504    ( 0.0000,  0.0000,  0.0000)
  17 Li     1.717736    2.975377   10.653504    ( 0.0000,  0.0000,  0.0000)
  18 Li     5.153135    2.975377   10.653504    ( 0.0000,  0.0000,  0.0000)
  19 Li    -1.717776    4.958903   10.653504    ( 0.0000,  0.0000,  0.0000)
  20 Li     1.717623    4.958903   10.653504    ( 0.0000,  0.0000,  0.0000)
  21 Li     5.153125    4.958903   10.653504    ( 0.0000,  0.0000,  0.0000)
  22 Li    -3.435480    5.950666   10.653504    ( 0.0000,  0.0000,  0.0000)
  23 Li     0.000022    5.950666   10.653504    ( 0.0000,  0.0000,  0.0000)
  24 Li     3.435421    5.950666   10.653504    ( 0.0000,  0.0000,  0.0000)
  25 Li    -3.435490    7.934191   10.653504    ( 0.0000,  0.0000,  0.0000)
  26 Li    -0.000091    7.934191   10.653504    ( 0.0000,  0.0000,  0.0000)
  27 Li     3.435411    7.934191   10.653504    ( 0.0000,  0.0000,  0.0000)
  28 Li     1.717695    0.991763   12.627088    ( 0.0000,  0.0000,  0.0000)
  29 Li     5.153197    0.991763   12.627088    ( 0.0000,  0.0000,  0.0000)
  30 Li     8.588596    0.991763   12.627088    ( 0.0000,  0.0000,  0.0000)
  31 Li    -0.000071    3.967140   12.627088    ( 0.0000,  0.0000,  0.0000)
  32 Li     3.435431    3.967140   12.627088    ( 0.0000,  0.0000,  0.0000)
  33 Li     6.870830    3.967140   12.627088    ( 0.0000,  0.0000,  0.0000)
  34 Li    -1.717786    6.942428   12.627088    ( 0.0000,  0.0000,  0.0000)
  35 Li     1.717717    6.942428   12.627088    ( 0.0000,  0.0000,  0.0000)
  36 Li     5.153115    6.942428   12.627088    ( 0.0000,  0.0000,  0.0000)
  37 Li     0.000000    0.000000   14.576373    ( 0.0000,  0.0000,  0.0000)
  38 Li     3.435502    0.000000   14.576373    ( 0.0000,  0.0000,  0.0000)
  39 Li     6.870901    0.000000   14.576373    ( 0.0000,  0.0000,  0.0000)
  40 Li    -0.000010    1.983525   14.576373    ( 0.0000,  0.0000,  0.0000)
  41 Li     3.435389    1.983525   14.576373    ( 0.0000,  0.0000,  0.0000)
  42 Li     6.870891    1.983525   14.576373    ( 0.0000,  0.0000,  0.0000)
  43 Li    -1.717766    2.975377   14.576373    ( 0.0000,  0.0000,  0.0000)
  44 Li     1.717736    2.975377   14.576373    ( 0.0000,  0.0000,  0.0000)
  45 Li     5.153135    2.975377   14.576373    ( 0.0000,  0.0000,  0.0000)
  46 Li    -1.717776    4.958903   14.576373    ( 0.0000,  0.0000,  0.0000)
  47 Li     1.717623    4.958903   14.576373    ( 0.0000,  0.0000,  0.0000)
  48 Li     5.153125    4.958903   14.576373    ( 0.0000,  0.0000,  0.0000)
  49 Li    -3.435480    5.950666   14.576373    ( 0.0000,  0.0000,  0.0000)
  50 Li     0.000022    5.950666   14.576373    ( 0.0000,  0.0000,  0.0000)
  51 Li     3.435421    5.950666   14.576373    ( 0.0000,  0.0000,  0.0000)
  52 Li    -3.435490    7.934191   14.576373    ( 0.0000,  0.0000,  0.0000)
  53 Li    -0.000091    7.934191   14.576373    ( 0.0000,  0.0000,  0.0000)
  54 Li     3.435411    7.934191   14.576373    ( 0.0000,  0.0000,  0.0000)
  55 Li     1.717015    0.990506   16.539531    ( 0.0000,  0.0000,  0.0000)
  56 Li     5.153856    0.990463   16.539563    ( 0.0000,  0.0000,  0.0000)
  57 Li     8.588600    0.992114   16.538911    ( 0.0000,  0.0000,  0.0000)
  58 Li    -0.001791    3.966942   16.540131    ( 0.0000,  0.0000,  0.0000)
  59 Li     3.435375    3.966861   16.556187    ( 0.0000,  0.0000,  0.0000)
  60 Li     6.872593    3.966916   16.540449    ( 0.0000,  0.0000,  0.0000)
  61 Li    -1.717717    6.942524   16.538924    ( 0.0000,  0.0000,  0.0000)
  62 Li     1.716751    6.943831   16.541895    ( 0.0000,  0.0000,  0.0000)
  63 Li     5.154010    6.943856   16.542409    ( 0.0000,  0.0000,  0.0000)
  64 Li    -0.000470    0.000950   18.491833    ( 0.0000,  0.0000,  0.0000)
  65 Li     3.435482   -0.000315   18.494355    ( 0.0000,  0.0000,  0.0000)
  66 Li     6.871511    0.000863   18.491747    ( 0.0000,  0.0000,  0.0000)
  67 Li    -0.000469    1.983263   18.494070    ( 0.0000,  0.0000,  0.0000)
  68 Li     3.435357    1.982120   18.499818    ( 0.0000,  0.0000,  0.0000)
  69 Li     6.871161    1.983182   18.494097    ( 0.0000,  0.0000,  0.0000)
  70 Li    -1.717564    2.974762   18.491210    ( 0.0000,  0.0000,  0.0000)
  71 Li     1.716605    2.974915   18.500489    ( 0.0000,  0.0000,  0.0000)
  72 Li     5.154303    2.974952   18.501011    ( 0.0000,  0.0000,  0.0000)
  73 Li    -1.717777    4.959471   18.491806    ( 0.0000,  0.0000,  0.0000)
  74 Li     1.716853    4.959410   18.503065    ( 0.0000,  0.0000,  0.0000)
  75 Li     5.153742    4.959368   18.503595    ( 0.0000,  0.0000,  0.0000)
  76 Li    -3.434906    5.950699   18.495509    ( 0.0000,  0.0000,  0.0000)
  77 Li    -0.000508    5.950686   18.494948    ( 0.0000,  0.0000,  0.0000)
  78 Li     3.435493    5.951594   18.504474    ( 0.0000,  0.0000,  0.0000)
  79 Li    -3.434567    7.934166   18.491584    ( 0.0000,  0.0000,  0.0000)
  80 Li    -0.001065    7.934144   18.491295    ( 0.0000,  0.0000,  0.0000)
  81 Li     3.435282    7.934497   18.497001    ( 0.0000,  0.0000,  0.0000)
  82 Li     1.711533    0.980239   20.465439    ( 0.0000,  0.0000,  0.0000)
  83 Li     5.159224    0.979194   20.465244    ( 0.0000,  0.0000,  0.0000)
  84 Li     8.588535    0.993007   20.465974    ( 0.0000,  0.0000,  0.0000)
  85 Li    -0.020586    3.963278   20.464331    ( 0.0000,  0.0000,  0.0000)
  86 Li     3.432704    3.946367   20.555627    ( 0.0000,  0.0000,  0.0000)
  87 Li     6.895070    3.962077   20.463780    ( 0.0000,  0.0000,  0.0000)
  88 Li    -1.717241    6.942616   20.465846    ( 0.0000,  0.0000,  0.0000)
  89 Li     1.694050    6.970055   20.465592    ( 0.0000,  0.0000,  0.0000)
  90 Li     5.176085    6.972665   20.467449    ( 0.0000,  0.0000,  0.0000)
  91 Li     0.004765    0.000468   22.595995    ( 0.0000,  0.0000,  0.0000)
  92 Li     3.433501   -0.004752   22.591588    ( 0.0000,  0.0000,  0.0000)
  93 Li     6.862974    0.001124   22.594775    ( 0.0000,  0.0000,  0.0000)
  94 Li    -0.006282    1.978059   22.594537    ( 0.0000,  0.0000,  0.0000)
  95 Li     3.437301    1.982313   22.586795    ( 0.0000,  0.0000,  0.0000)
  96 Li     6.881539    1.977520   22.596771    ( 0.0000,  0.0000,  0.0000)
  97 Li    -1.718811    2.976540   22.604213    ( 0.0000,  0.0000,  0.0000)
  98 Li     1.706880    2.977401   22.572424    ( 0.0000,  0.0000,  0.0000)
  99 Li     5.166404    2.976176   22.562740    ( 0.0000,  0.0000,  0.0000)
 100 Li    -1.715044    4.951077   22.590248    ( 0.0000,  0.0000,  0.0000)
 101 Li     1.697221    4.976205   22.468230    ( 0.0000,  0.0000,  0.0000)
 102 Li     5.180822    4.976025   22.413099    ( 0.0000,  0.0000,  0.0000)
 103 Li    -3.419581    5.959937   22.623954    ( 0.0000,  0.0000,  0.0000)
 104 Li    -0.016811    5.958893   22.612522    ( 0.0000,  0.0000,  0.0000)
 105 Li     3.434029    5.990289   22.297828    ( 0.0000,  0.0000,  0.0000)
 106 Li    -3.435838    7.936993   22.602319    ( 0.0000,  0.0000,  0.0000)
 107 Li     0.002045    7.935936   22.603689    ( 0.0000,  0.0000,  0.0000)
 108 Li     3.436528    7.953711   22.642778    ( 0.0000,  0.0000,  0.0000)
 109 N      1.717695    0.991763   10.638094    ( 0.0000,  0.0000,  0.0000)
 110 N      5.153197    0.991763   10.638094    ( 0.0000,  0.0000,  0.0000)
 111 N      8.588596    0.991763   10.638094    ( 0.0000,  0.0000,  0.0000)
 112 N     -0.000071    3.967140   10.638094    ( 0.0000,  0.0000,  0.0000)
 113 N      3.435431    3.967140   10.638094    ( 0.0000,  0.0000,  0.0000)
 114 N      6.870830    3.967140   10.638094    ( 0.0000,  0.0000,  0.0000)
 115 N     -1.717786    6.942428   10.638094    ( 0.0000,  0.0000,  0.0000)
 116 N      1.717717    6.942428   10.638094    ( 0.0000,  0.0000,  0.0000)
 117 N      5.153115    6.942428   10.638094    ( 0.0000,  0.0000,  0.0000)
 118 N      1.717695    0.991763   14.562149    ( 0.0000,  0.0000,  0.0000)
 119 N      5.153197    0.991763   14.562149    ( 0.0000,  0.0000,  0.0000)
 120 N      8.588596    0.991763   14.562149    ( 0.0000,  0.0000,  0.0000)
 121 N     -0.000071    3.967140   14.562149    ( 0.0000,  0.0000,  0.0000)
 122 N      3.435431    3.967140   14.562149    ( 0.0000,  0.0000,  0.0000)
 123 N      6.870830    3.967140   14.562149    ( 0.0000,  0.0000,  0.0000)
 124 N     -1.717786    6.942428   14.562149    ( 0.0000,  0.0000,  0.0000)
 125 N      1.717717    6.942428   14.562149    ( 0.0000,  0.0000,  0.0000)
 126 N      5.153115    6.942428   14.562149    ( 0.0000,  0.0000,  0.0000)
 127 N      1.717305    0.991129   18.473970    ( 0.0000,  0.0000,  0.0000)
 128 N      5.153558    0.991075   18.474070    ( 0.0000,  0.0000,  0.0000)
 129 N      8.588582    0.991902   18.473495    ( 0.0000,  0.0000,  0.0000)
 130 N     -0.000919    3.967108   18.475353    ( 0.0000,  0.0000,  0.0000)
 131 N      3.435381    3.966851   18.531842    ( 0.0000,  0.0000,  0.0000)
 132 N      6.871741    3.967054   18.476201    ( 0.0000,  0.0000,  0.0000)
 133 N     -1.717743    6.942415   18.473578    ( 0.0000,  0.0000,  0.0000)
 134 N      1.717046    6.943363   18.480649    ( 0.0000,  0.0000,  0.0000)
 135 N      5.153721    6.943382   18.482371    ( 0.0000,  0.0000,  0.0000)
 136 N      1.721052    0.996819   22.381973    ( 0.0000,  0.0000,  0.0000)
 137 N      5.149798    0.996162   22.381741    ( 0.0000,  0.0000,  0.0000)
 138 N      8.588322    0.992336   22.385004    ( 0.0000,  0.0000,  0.0000)
 139 N     -0.002054    3.965291   22.379533    ( 0.0000,  0.0000,  0.0000)
 140 N      3.440005    4.001856   22.585188    ( 0.0000,  0.0000,  0.0000)
 141 N      6.875671    3.964772   22.378682    ( 0.0000,  0.0000,  0.0000)
 142 N     -1.717509    6.943817   22.384694    ( 0.0000,  0.0000,  0.0000)
 143 N      1.713919    6.946965   22.381170    ( 0.0000,  0.0000,  0.0000)
 144 N      5.155273    6.945512   22.383992    ( 0.0000,  0.0000,  0.0000)

Unit cell:
           periodic     x           y           z      points  spacing
  1. axis:    yes   10.306300    0.000000    0.000000    54     0.1653
  2. axis:    yes   -5.153194    8.925954    0.000000    54     0.1653
  3. axis:    yes    0.000000    0.000000   29.633400   147     0.2016

  Lengths:  10.306300  10.306700  29.633400
  Angles:   90.000000  90.000000 119.999001

Effective grid spacing dv^(1/3) = 0.1853

                     log10-error:    total        iterations:
           time      wfs    density  energy       fermi  poisson
iter:   1  23:32:28  -4.96         -503.191105    4             
iter:   2  23:32:47  -5.30  -3.01  -503.189926    34            
iter:   3  23:33:05  -5.79  -2.55  -503.190299    4             
iter:   4  23:33:24  -7.02  -3.10  -503.188615    4             
iter:   5  23:33:43  -7.93  -3.20  -503.188583    2             
iter:   6  23:34:02  -7.60  -3.20  -503.187999    3             
iter:   7  23:34:22  -6.50  -3.27  -503.186128    4             
iter:   8  23:34:41  -7.83  -3.26  -503.186371    3             
iter:   9  23:35:01  -7.06  -3.73  -503.186114    3             
iter:  10  23:35:20  -6.94  -3.12  -503.186510    3             
iter:  11  23:35:39  -7.21  -4.16  -503.186165    3             
iter:  12  23:35:59  -7.49  -3.49  -503.186502    3             
iter:  13  23:36:18  -7.80  -4.37  -503.186707    3             
iter:  14  23:36:38  -8.23  -3.88  -503.186700    2             
iter:  15  23:36:56  -8.18  -3.92  -503.186530    3             
iter:  16  23:37:16  -8.64  -4.53  -503.186467    3             

Converged after 16 iterations.

Dipole moment: (-4.106102, 2.480104, 0.086164) |e|*Ang

Energy contributions relative to reference atoms: (reference = -75445.846558)

Kinetic:       +599.936395
Potential:     -407.162666
External:        +0.000000
XC:            -692.606592
Entropy (-ST):   -0.020236
Local:           -3.343486
--------------------------
Free energy:   -503.196585
Extrapolated:  -503.186467

Fermi level: -0.53470

Showing only first 2 kpts
 Kpt  Band  Eigenvalues  Occupancy
  0   142     -0.42628    0.00000
  0   143     -0.26997    0.00000
  0   144     -0.26218    0.00000
  0   145      0.07103    0.00000

  1   142     -0.56058    0.41337
  1   143     -0.55273    0.38156
  1   144     -0.53229    0.19559
  1   145     -0.42134    0.00001


No gap

Forces in eV/Ang:
  0 Li   -0.00672   -0.06182   -0.22881
  1 Li    0.00003    0.00003   -0.02469
  2 Li   -0.00002    0.00007   -0.02469
  3 Li    0.00000    0.00002   -0.02471
  4 Li    0.00004   -0.00003   -0.02471
  5 Li   -0.00002   -0.00000   -0.02725
  6 Li   -0.00003   -0.00001   -0.02473
  7 Li    0.00002   -0.00003   -0.02471
  8 Li    0.00000   -0.00000   -0.02479
  9 Li   -0.00002   -0.00002   -0.02483
 10 Li   -0.00004    0.00020   -0.00970
 11 Li   -0.00072    0.00013   -0.00963
 12 Li   -0.00013    0.00001   -0.00968
 13 Li   -0.00013    0.00041   -0.00964
 14 Li    0.00045   -0.00003   -0.00989
 15 Li   -0.00026    0.00022   -0.00965
 16 Li    0.00033   -0.00036   -0.00967
 17 Li   -0.00061   -0.00024   -0.00989
 18 Li    0.00022   -0.00054   -0.00989
 19 Li    0.00022    0.00019   -0.00966
 20 Li    0.00057   -0.00014   -0.00991
 21 Li    0.00011   -0.00004   -0.00993
 22 Li    0.00016    0.00010   -0.00969
 23 Li   -0.00082    0.00021   -0.00967
 24 Li   -0.00022    0.00005   -0.00995
 25 Li    0.00034    0.00008   -0.00970
 26 Li    0.00060   -0.00021   -0.00970
 27 Li   -0.00006    0.00004   -0.00971
 28 Li   -0.00020   -0.00039   -0.01517
 29 Li    0.00022   -0.00035   -0.01516
 30 Li    0.00000    0.00016   -0.01492
 31 Li   -0.00056   -0.00014   -0.01508
 32 Li   -0.00006   -0.00018   -0.01126
 33 Li    0.00059   -0.00012   -0.01506
 34 Li    0.00005   -0.00002   -0.01493
 35 Li   -0.00038    0.00052   -0.01498
 36 Li    0.00034    0.00050   -0.01494
 37 Li   -0.00091    0.00089    0.00975
 38 Li   -0.00073    0.00017    0.01060
 39 Li    0.00074    0.00066    0.00974
 40 Li   -0.00004    0.00040    0.01060
 41 Li    0.00048   -0.00204    0.01278
 42 Li   -0.00039    0.00017    0.01062
 43 Li    0.00037   -0.00122    0.00925
 44 Li   -0.00243   -0.00114    0.01298
 45 Li    0.00200   -0.00146    0.01306
 46 Li    0.00024    0.00116    0.00963
 47 Li   -0.00122    0.00064    0.01334
 48 Li    0.00187    0.00068    0.01343
 49 Li    0.00031   -0.00013    0.01105
 50 Li   -0.00091   -0.00004    0.01090
 51 Li   -0.00028    0.00182    0.01341
 52 Li    0.00132   -0.00026    0.00961
 53 Li   -0.00032   -0.00054    0.00950
 54 Li   -0.00013    0.00025    0.01126
 55 Li    0.00038    0.00081   -0.00936
 56 Li   -0.00030    0.00085   -0.00918
 57 Li   -0.00007   -0.00026   -0.00636
 58 Li    0.00125    0.00041   -0.00926
 59 Li    0.00022    0.00176    0.04213
 60 Li   -0.00144    0.00045   -0.00905
 61 Li   -0.00002   -0.00037   -0.00645
 62 Li    0.00151   -0.00164   -0.00628
 63 Li   -0.00153   -0.00190   -0.00474
 64 Li   -0.00202    0.00283   -0.01543
 65 Li   -0.00082    0.00138   -0.00643
 66 Li   -0.00018    0.00234   -0.01606
 67 Li    0.00326    0.00165   -0.00679
 68 Li    0.00143   -0.00001    0.04602
 69 Li   -0.00177    0.00146   -0.00671
 70 Li   -0.00058   -0.00312   -0.01933
 71 Li   -0.00203    0.00083    0.05119
 72 Li   -0.00008    0.00109    0.05460
 73 Li    0.00134    0.00273   -0.01677
 74 Li    0.00316    0.00187    0.06858
 75 Li   -0.00110    0.00136    0.07287
 76 Li   -0.00288   -0.00399    0.00188
 77 Li    0.00085   -0.00380   -0.00199
 78 Li   -0.00085   -0.00255    0.07857
 79 Li    0.00513    0.00211   -0.01679
 80 Li   -0.00272    0.00211   -0.01841
 81 Li    0.00058   -0.00306    0.01013
 82 Li   -0.00157   -0.00694   -0.01557
 83 Li    0.00217   -0.00966   -0.01582
 84 Li   -0.00018   -0.00952    0.00758
 85 Li   -0.03302   -0.00844   -0.03546
 86 Li   -0.01703   -0.12580   -0.07987
 87 Li    0.04942   -0.01241   -0.04626
 88 Li   -0.00267   -0.00257    0.00615
 89 Li   -0.06723    0.07856   -0.08899
 90 Li    0.06963    0.09178   -0.10117
 91 Li    0.02458    0.00820   -0.03803
 92 Li    0.02016    0.03273   -0.03307
 93 Li    0.00189   -0.00111   -0.04475
 94 Li    0.01882    0.03067   -0.01119
 95 Li   -0.00757   -0.02641    0.04630
 96 Li   -0.05093    0.02758    0.00037
 97 Li    0.02292    0.00463    0.00841
 98 Li   -0.02864   -0.00709    0.06171
 99 Li    0.05283   -0.00698    0.06629
100 Li   -0.01781   -0.00248   -0.05003
101 Li   -0.03934    0.03063    0.02131
102 Li    0.02462    0.02305   -0.00526
103 Li   -0.05624   -0.05211    0.12190
104 Li    0.06856   -0.03593    0.07981
105 Li    0.00444    0.04851   -0.03012
106 Li   -0.00814    0.03239   -0.00913
107 Li   -0.01903    0.03928   -0.00028
108 Li   -0.01857   -0.12613    0.19600
109 N     0.00021   -0.00012    0.08132
110 N    -0.00034   -0.00005    0.08133
111 N    -0.00008    0.00016    0.08156
112 N     0.00004   -0.00064    0.08102
113 N    -0.00038   -0.00068   -0.02469
114 N     0.00043   -0.00061    0.08087
115 N     0.00036   -0.00015    0.08163
116 N    -0.00067    0.00019    0.07970
117 N     0.00023    0.00013    0.07908
118 N     0.00004   -0.00006   -0.01675
119 N    -0.00010    0.00012   -0.01665
120 N     0.00002    0.00050   -0.01806
121 N     0.00037    0.00002   -0.01437
122 N    -0.00030    0.00002   -0.00419
123 N    -0.00000    0.00009   -0.01287
124 N     0.00038    0.00029   -0.01779
125 N    -0.00006    0.00010   -0.00599
126 N    -0.00019    0.00006   -0.00373
127 N    -0.00037   -0.00126    0.00191
128 N     0.00000   -0.00118    0.00068
129 N     0.00018   -0.00038    0.01956
130 N    -0.00273   -0.00174   -0.00830
131 N    -0.00113   -0.00721    0.01626
132 N     0.00411   -0.00183   -0.01310
133 N    -0.00006    0.00070    0.01910
134 N    -0.00598    0.00602   -0.02394
135 N     0.00611    0.00767   -0.02554
136 N    -0.00224    0.01953    0.01668
137 N     0.00440    0.02410    0.01920
138 N     0.00711   -0.00672    0.05443
139 N     0.04813    0.02735    0.01058
140 N     0.00433    0.03056   -0.02920
141 N    -0.05589    0.03499    0.00368
142 N    -0.00524    0.00262    0.05032
143 N     0.05330   -0.04649   -0.03346
144 N    -0.04092   -0.04710   -0.05083

System changes: positions 

Initializing position-dependent things.

Density initialized from wave functions
                                                  
                                                  
                                                  
                                                  
                                                  
                                                  
            Li      Li     Lii                    
           Li  N   Li   N  Li   N                 
              Li  N   Li  N    Li N               
             LiLiLi  Li LLi   LiLLi               
               Li   N   Li   N  Li   N            
            Li N  LiLi  N LiLi  N  Li             
           Li      LLi     LiLi      Li           
              Li  N   Li  N    Li N               
             LiLiLi  Li LLi   LiLLi               
               Li   N   LiLi N  Li   N            
            Li N  LiLi  N   Li  N Li              
           Li Li   LLiLi   LiLiLi    Li           
             Li   N  Li   N   Li  N               
               LiLi     LLi     LLi               
            Li Li LiNi  LiLiLN  LiLi N            
               N        N       N                 
           Li Li   LLiLi   LiLiLi    Li           
             LiLi N  Li LiN   LiLiN               
                 Li N    Li  N   Li  N            
               Li Li    LiLi    LiLi              
                                                  
                    Li       Li      Li           
                                                  
                                                  
                                                  
                                                  

Positions:
   0 Li     3.498864    4.435390   24.390443    ( 0.0000,  0.0000,  0.0000)
   1 Li     1.717695    0.991763    8.714294    ( 0.0000,  0.0000,  0.0000)
   2 Li     5.153197    0.991763    8.714294    ( 0.0000,  0.0000,  0.0000)
   3 Li     8.588596    0.991763    8.714294    ( 0.0000,  0.0000,  0.0000)
   4 Li    -0.000071    3.967140    8.714294    ( 0.0000,  0.0000,  0.0000)
   5 Li     3.435431    3.967140    8.714294    ( 0.0000,  0.0000,  0.0000)
   6 Li     6.870830    3.967140    8.714294    ( 0.0000,  0.0000,  0.0000)
   7 Li    -1.717786    6.942428    8.714294    ( 0.0000,  0.0000,  0.0000)
   8 Li     1.717717    6.942428    8.714294    ( 0.0000,  0.0000,  0.0000)
   9 Li     5.153115    6.942428    8.714294    ( 0.0000,  0.0000,  0.0000)
  10 Li     0.000000    0.000000   10.653504    ( 0.0000,  0.0000,  0.0000)
  11 Li     3.435502    0.000000   10.653504    ( 0.0000,  0.0000,  0.0000)
  12 Li     6.870901    0.000000   10.653504    ( 0.0000,  0.0000,  0.0000)
  13 Li    -0.000010    1.983525   10.653504    ( 0.0000,  0.0000,  0.0000)
  14 Li     3.435389    1.983525   10.653504    ( 0.0000,  0.0000,  0.0000)
  15 Li     6.870891    1.983525   10.653504    ( 0.0000,  0.0000,  0.0000)
  16 Li    -1.717766    2.975377   10.653504    ( 0.0000,  0.0000,  0.0000)
  17 Li     1.717736    2.975377   10.653504    ( 0.0000,  0.0000,  0.0000)
  18 Li     5.153135    2.975377   10.653504    ( 0.0000,  0.0000,  0.0000)
  19 Li    -1.717776    4.958903   10.653504    ( 0.0000,  0.0000,  0.0000)
  20 Li     1.717623    4.958903   10.653504    ( 0.0000,  0.0000,  0.0000)
  21 Li     5.153125    4.958903   10.653504    ( 0.0000,  0.0000,  0.0000)
  22 Li    -3.435480    5.950666   10.653504    ( 0.0000,  0.0000,  0.0000)
  23 Li     0.000022    5.950666   10.653504    ( 0.0000,  0.0000,  0.0000)
  24 Li     3.435421    5.950666   10.653504    ( 0.0000,  0.0000,  0.0000)
  25 Li    -3.435490    7.934191   10.653504    ( 0.0000,  0.0000,  0.0000)
  26 Li    -0.000091    7.934191   10.653504    ( 0.0000,  0.0000,  0.0000)
  27 Li     3.435411    7.934191   10.653504    ( 0.0000,  0.0000,  0.0000)
  28 Li     1.717695    0.991763   12.627088    ( 0.0000,  0.0000,  0.0000)
  29 Li     5.153197    0.991763   12.627088    ( 0.0000,  0.0000,  0.0000)
  30 Li     8.588596    0.991763   12.627088    ( 0.0000,  0.0000,  0.0000)
  31 Li    -0.000071    3.967140   12.627088    ( 0.0000,  0.0000,  0.0000)
  32 Li     3.435431    3.967140   12.627088    ( 0.0000,  0.0000,  0.0000)
  33 Li     6.870830    3.967140   12.627088    ( 0.0000,  0.0000,  0.0000)
  34 Li    -1.717786    6.942428   12.627088    ( 0.0000,  0.0000,  0.0000)
  35 Li     1.717717    6.942428   12.627088    ( 0.0000,  0.0000,  0.0000)
  36 Li     5.153115    6.942428   12.627088    ( 0.0000,  0.0000,  0.0000)
  37 Li     0.000000    0.000000   14.576373    ( 0.0000,  0.0000,  0.0000)
  38 Li     3.435502    0.000000   14.576373    ( 0.0000,  0.0000,  0.0000)
  39 Li     6.870901    0.000000   14.576373    ( 0.0000,  0.0000,  0.0000)
  40 Li    -0.000010    1.983525   14.576373    ( 0.0000,  0.0000,  0.0000)
  41 Li     3.435389    1.983525   14.576373    ( 0.0000,  0.0000,  0.0000)
  42 Li     6.870891    1.983525   14.576373    ( 0.0000,  0.0000,  0.0000)
  43 Li    -1.717766    2.975377   14.576373    ( 0.0000,  0.0000,  0.0000)
  44 Li     1.717736    2.975377   14.576373    ( 0.0000,  0.0000,  0.0000)
  45 Li     5.153135    2.975377   14.576373    ( 0.0000,  0.0000,  0.0000)
  46 Li    -1.717776    4.958903   14.576373    ( 0.0000,  0.0000,  0.0000)
  47 Li     1.717623    4.958903   14.576373    ( 0.0000,  0.0000,  0.0000)
  48 Li     5.153125    4.958903   14.576373    ( 0.0000,  0.0000,  0.0000)
  49 Li    -3.435480    5.950666   14.576373    ( 0.0000,  0.0000,  0.0000)
  50 Li     0.000022    5.950666   14.576373    ( 0.0000,  0.0000,  0.0000)
  51 Li     3.435421    5.950666   14.576373    ( 0.0000,  0.0000,  0.0000)
  52 Li    -3.435490    7.934191   14.576373    ( 0.0000,  0.0000,  0.0000)
  53 Li    -0.000091    7.934191   14.576373    ( 0.0000,  0.0000,  0.0000)
  54 Li     3.435411    7.934191   14.576373    ( 0.0000,  0.0000,  0.0000)
  55 Li     1.717073    0.990633   16.537934    ( 0.0000,  0.0000,  0.0000)
  56 Li     5.153810    0.990595   16.537998    ( 0.0000,  0.0000,  0.0000)
  57 Li     8.588589    0.992073   16.537812    ( 0.0000,  0.0000,  0.0000)
  58 Li    -0.001595    3.967009   16.538561    ( 0.0000,  0.0000,  0.0000)
  59 Li     3.435411    3.967152   16.563288    ( 0.0000,  0.0000,  0.0000)
  60 Li     6.872365    3.966988   16.538920    ( 0.0000,  0.0000,  0.0000)
  61 Li    -1.717719    6.942465   16.537810    ( 0.0000,  0.0000,  0.0000)
  62 Li     1.716996    6.943568   16.540847    ( 0.0000,  0.0000,  0.0000)
  63 Li     5.153762    6.943550   16.541622    ( 0.0000,  0.0000,  0.0000)
  64 Li    -0.000813    0.001415   18.489261    ( 0.0000,  0.0000,  0.0000)
  65 Li     3.435341   -0.000086   18.493272    ( 0.0000,  0.0000,  0.0000)
  66 Li     6.871476    0.001247   18.489068    ( 0.0000,  0.0000,  0.0000)
  67 Li     0.000084    1.983545   18.492929    ( 0.0000,  0.0000,  0.0000)
  68 Li     3.435601    1.982134   18.507550    ( 0.0000,  0.0000,  0.0000)
  69 Li     6.870864    1.983434   18.492973    ( 0.0000,  0.0000,  0.0000)
  70 Li    -1.717667    2.974240   18.487976    ( 0.0000,  0.0000,  0.0000)
  71 Li     1.716270    2.975059   18.509084    ( 0.0000,  0.0000,  0.0000)
  72 Li     5.154279    2.975139   18.510174    ( 0.0000,  0.0000,  0.0000)
  73 Li    -1.717550    4.959931   18.489003    ( 0.0000,  0.0000,  0.0000)
  74 Li     1.717392    4.959723   18.514564    ( 0.0000,  0.0000,  0.0000)
  75 Li     5.153556    4.959594   18.515811    ( 0.0000,  0.0000,  0.0000)
  76 Li    -3.435398    5.950025   18.495838    ( 0.0000,  0.0000,  0.0000)
  77 Li    -0.000362    5.950044   18.494627    ( 0.0000,  0.0000,  0.0000)
  78 Li     3.435346    5.951159   18.517641    ( 0.0000,  0.0000,  0.0000)
  79 Li    -3.433710    7.934519   18.488785    ( 0.0000,  0.0000,  0.0000)
  80 Li    -0.001511    7.934498   18.488222    ( 0.0000,  0.0000,  0.0000)
  81 Li     3.435383    7.933979   18.498715    ( 0.0000,  0.0000,  0.0000)
  82 Li     1.711268    0.979068   20.462763    ( 0.0000,  0.0000,  0.0000)
  83 Li     5.159588    0.977565   20.462522    ( 0.0000,  0.0000,  0.0000)
  84 Li     8.588505    0.991425   20.467169    ( 0.0000,  0.0000,  0.0000)
  85 Li    -0.026134    3.961858   20.458281    ( 0.0000,  0.0000,  0.0000)
  86 Li     3.429847    3.925253   20.542070    ( 0.0000,  0.0000,  0.0000)
  87 Li     6.903367    3.959990   20.455906    ( 0.0000,  0.0000,  0.0000)
  88 Li    -1.717685    6.942193   20.466803    ( 0.0000,  0.0000,  0.0000)
  89 Li     1.682766    6.983240   20.450500    ( 0.0000,  0.0000,  0.0000)
  90 Li     5.187770    6.988069   20.450309    ( 0.0000,  0.0000,  0.0000)
  91 Li     0.009049    0.001874   22.589661    ( 0.0000,  0.0000,  0.0000)
  92 Li     3.436936    0.000794   22.586064    ( 0.0000,  0.0000,  0.0000)
  93 Li     6.863194    0.000941   22.587321    ( 0.0000,  0.0000,  0.0000)
  94 Li    -0.003082    1.983264   22.592665    ( 0.0000,  0.0000,  0.0000)
  95 Li     3.436004    1.977719   22.594545    ( 0.0000,  0.0000,  0.0000)
  96 Li     6.872847    1.982196   22.596829    ( 0.0000,  0.0000,  0.0000)
  97 Li    -1.714899    2.977321   22.605600    ( 0.0000,  0.0000,  0.0000)
  98 Li     1.701932    2.976118   22.582757    ( 0.0000,  0.0000,  0.0000)
  99 Li     5.175476    2.974908   22.573847    ( 0.0000,  0.0000,  0.0000)
 100 Li    -1.718069    4.950578   22.581913    ( 0.0000,  0.0000,  0.0000)
 101 Li     1.690382    4.981456   22.471879    ( 0.0000,  0.0000,  0.0000)
 102 Li     5.185168    4.979984   22.412330    ( 0.0000,  0.0000,  0.0000)
 103 Li    -3.429130    5.951030   22.644303    ( 0.0000,  0.0000,  0.0000)
 104 Li    -0.005146    5.952730   22.625842    ( 0.0000,  0.0000,  0.0000)
 105 Li     3.434774    5.998713   22.292957    ( 0.0000,  0.0000,  0.0000)
 106 Li    -3.437235    7.942555   22.600796    ( 0.0000,  0.0000,  0.0000)
 107 Li    -0.001203    7.942659   22.603637    ( 0.0000,  0.0000,  0.0000)
 108 Li     3.433356    7.932284   22.675496    ( 0.0000,  0.0000,  0.0000)
 109 N      1.717695    0.991763   10.638094    ( 0.0000,  0.0000,  0.0000)
 110 N      5.153197    0.991763   10.638094    ( 0.0000,  0.0000,  0.0000)
 111 N      8.588596    0.991763   10.638094    ( 0.0000,  0.0000,  0.0000)
 112 N     -0.000071    3.967140   10.638094    ( 0.0000,  0.0000,  0.0000)
 113 N      3.435431    3.967140   10.638094    ( 0.0000,  0.0000,  0.0000)
 114 N      6.870830    3.967140   10.638094    ( 0.0000,  0.0000,  0.0000)
 115 N     -1.717786    6.942428   10.638094    ( 0.0000,  0.0000,  0.0000)
 116 N      1.717717    6.942428   10.638094    ( 0.0000,  0.0000,  0.0000)
 117 N      5.153115    6.942428   10.638094    ( 0.0000,  0.0000,  0.0000)
 118 N      1.717695    0.991763   14.562149    ( 0.0000,  0.0000,  0.0000)
 119 N      5.153197    0.991763   14.562149    ( 0.0000,  0.0000,  0.0000)
 120 N      8.588596    0.991763   14.562149    ( 0.0000,  0.0000,  0.0000)
 121 N     -0.000071    3.967140   14.562149    ( 0.0000,  0.0000,  0.0000)
 122 N      3.435431    3.967140   14.562149    ( 0.0000,  0.0000,  0.0000)
 123 N      6.870830    3.967140   14.562149    ( 0.0000,  0.0000,  0.0000)
 124 N     -1.717786    6.942428   14.562149    ( 0.0000,  0.0000,  0.0000)
 125 N      1.717717    6.942428   14.562149    ( 0.0000,  0.0000,  0.0000)
 126 N      5.153115    6.942428   14.562149    ( 0.0000,  0.0000,  0.0000)
 127 N      1.717242    0.990918   18.474425    ( 0.0000,  0.0000,  0.0000)
 128 N      5.153558    0.990879   18.474318    ( 0.0000,  0.0000,  0.0000)
 129 N      8.588614    0.991839   18.476928    ( 0.0000,  0.0000,  0.0000)
 130 N     -0.001374    3.966813   18.474100    ( 0.0000,  0.0000,  0.0000)
 131 N      3.435190    3.965643   18.534661    ( 0.0000,  0.0000,  0.0000)
 132 N      6.872428    3.966746   18.474144    ( 0.0000,  0.0000,  0.0000)
 133 N     -1.717754    6.942535   18.476935    ( 0.0000,  0.0000,  0.0000)
 134 N      1.716044    6.944369   18.476786    ( 0.0000,  0.0000,  0.0000)
 135 N      5.154744    6.944667   18.478245    ( 0.0000,  0.0000,  0.0000)
 136 N      1.720677    1.000143   22.384901    ( 0.0000,  0.0000,  0.0000)
 137 N      5.150524    1.000272   22.385090    ( 0.0000,  0.0000,  0.0000)
 138 N      8.589538    0.991243   22.394225    ( 0.0000,  0.0000,  0.0000)
 139 N      0.006208    3.969939   22.381428    ( 0.0000,  0.0000,  0.0000)
 140 N      3.440756    4.007164   22.580535    ( 0.0000,  0.0000,  0.0000)
 141 N      6.866066    3.970746   22.379410    ( 0.0000,  0.0000,  0.0000)
 142 N     -1.718394    6.944280   22.393221    ( 0.0000,  0.0000,  0.0000)
 143 N      1.723090    6.938949   22.375631    ( 0.0000,  0.0000,  0.0000)
 144 N      5.148226    6.937392   22.375522    ( 0.0000,  0.0000,  0.0000)

Unit cell:
           periodic     x           y           z      points  spacing
  1. axis:    yes   10.306300    0.000000    0.000000    54     0.1653
  2. axis:    yes   -5.153194    8.925954    0.000000    54     0.1653
  3. axis:    yes    0.000000    0.000000   29.633400   147     0.2016

  Lengths:  10.306300  10.306700  29.633400
  Angles:   90.000000  90.000000 119.999001

Effective grid spacing dv^(1/3) = 0.1853

                     log10-error:    total        iterations:
           time      wfs    density  energy       fermi  poisson
iter:   1  23:37:47  -2.97         -503.241434    33            
iter:   2  23:38:06  -3.97  -2.46  -503.224587    36            
iter:   3  23:38:25  -4.71  -2.61  -503.232728    4             
iter:   4  23:38:45  -5.29  -2.72  -503.225904    4             
iter:   5  23:39:05  -4.82  -2.77  -503.256831    5             
iter:   6  23:39:24  -5.46  -2.15  -503.219899    4             
iter:   7  23:39:44  -5.88  -2.83  -503.222004    5             
iter:   8  23:40:03  -4.68  -2.47  -503.222407    5             
iter:   9  23:40:22  -5.39  -2.95  -503.219526    4             
iter:  10  23:40:42  -5.68  -3.00  -503.218712    3             
iter:  11  23:41:01  -6.24  -3.08  -503.217206    4             
iter:  12  23:41:20  -5.89  -3.23  -503.216025    4             
iter:  13  23:41:39  -6.64  -3.10  -503.216701    3             
iter:  14  23:42:00  -6.28  -3.37  -503.216945    3             
iter:  15  23:42:19  -6.30  -3.39  -503.216185    3             
iter:  16  23:42:37  -7.03  -3.77  -503.216284    3             
iter:  17  23:42:55  -7.20  -3.97  -503.216340    2             
iter:  18  23:43:13  -7.75  -4.14  -503.216263    3             
iter:  19  23:43:31  -8.12  -4.07  -503.216268    2             

Converged after 19 iterations.

Dipole moment: (-3.967125, 2.402775, 0.040566) |e|*Ang

Energy contributions relative to reference atoms: (reference = -75445.846558)

Kinetic:       +600.150305
Potential:     -407.339206
External:        +0.000000
XC:            -692.677236
Entropy (-ST):   -0.019283
Local:           -3.340489
--------------------------
Free energy:   -503.225909
Extrapolated:  -503.216268

Fermi level: -0.54073

Showing only first 2 kpts
 Kpt  Band  Eigenvalues  Occupancy
  0   142     -0.43442    0.00001
  0   143     -0.27291    0.00000
  0   144     -0.26836    0.00000
  0   145      0.06521    0.00000

  1   142     -0.56627    0.41236
  1   143     -0.56122    0.39372
  1   144     -0.53762    0.18795
  1   145     -0.42575    0.00000


No gap

Forces in eV/Ang:
  0 Li   -0.00013   -0.01063    0.01610
  1 Li    0.00003    0.00003   -0.02505
  2 Li   -0.00002    0.00008   -0.02505
  3 Li    0.00000    0.00002   -0.02512
  4 Li    0.00005   -0.00003   -0.02504
  5 Li   -0.00002   -0.00001   -0.02752
  6 Li   -0.00004   -0.00001   -0.02505
  7 Li    0.00002   -0.00003   -0.02512
  8 Li    0.00001   -0.00001   -0.02508
  9 Li   -0.00003   -0.00003   -0.02511
 10 Li   -0.00000    0.00011   -0.00994
 11 Li   -0.00072    0.00016   -0.00995
 12 Li   -0.00017   -0.00007   -0.00993
 13 Li   -0.00010    0.00045   -0.00994
 14 Li    0.00045    0.00012   -0.01004
 15 Li   -0.00029    0.00027   -0.00994
 16 Li    0.00033   -0.00030   -0.00992
 17 Li   -0.00049   -0.00016   -0.01003
 18 Li    0.00011   -0.00045   -0.01002
 19 Li    0.00021    0.00013   -0.00992
 20 Li    0.00068   -0.00017   -0.01000
 21 Li    0.00000   -0.00006   -0.01000
 22 Li    0.00007    0.00009   -0.00992
 23 Li   -0.00074    0.00020   -0.00992
 24 Li   -0.00021   -0.00004   -0.00999
 25 Li    0.00025    0.00007   -0.00994
 26 Li    0.00069   -0.00022   -0.00994
 27 Li   -0.00005   -0.00006   -0.00992
 28 Li   -0.00013   -0.00021   -0.01552
 29 Li    0.00016   -0.00015   -0.01549
 30 Li    0.00000    0.00007   -0.01532
 31 Li   -0.00028   -0.00005   -0.01535
 32 Li   -0.00003    0.00002   -0.00942
 33 Li    0.00027   -0.00003   -0.01528
 34 Li    0.00003   -0.00008   -0.01534
 35 Li   -0.00013    0.00023   -0.01501
 36 Li    0.00010    0.00018   -0.01489
 37 Li   -0.00053   -0.00027    0.00830
 38 Li   -0.00069    0.00039    0.00868
 39 Li    0.00032   -0.00034    0.00818
 40 Li    0.00009    0.00080    0.00874
 41 Li    0.00049    0.00105    0.01331
 42 Li   -0.00053    0.00067    0.00882
 43 Li    0.00026   -0.00054    0.00754
 44 Li    0.00006    0.00042    0.01346
 45 Li   -0.00038    0.00011    0.01353
 46 Li    0.00014    0.00039    0.00784
 47 Li    0.00109   -0.00031    0.01373
 48 Li   -0.00033   -0.00018    0.01380
 49 Li   -0.00062   -0.00002    0.00965
 50 Li   -0.00008    0.00011    0.00937
 51 Li   -0.00018   -0.00031    0.01367
 52 Li    0.00013   -0.00055    0.00822
 53 Li    0.00074   -0.00074    0.00800
 54 Li    0.00000   -0.00065    0.01002
 55 Li    0.00395    0.00765    0.00888
 56 Li   -0.00392    0.00819    0.00802
 57 Li   -0.00007   -0.00242    0.01381
 58 Li    0.01047    0.00156    0.00334
 59 Li    0.00050    0.00398    0.00937
 60 Li   -0.01091    0.00185    0.00060
 61 Li   -0.00048   -0.00129    0.01331
 62 Li    0.00728   -0.00950   -0.00662
 63 Li   -0.00682   -0.00982   -0.00801
 64 Li    0.00118    0.00746   -0.02516
 65 Li    0.00118    0.00072   -0.00508
 66 Li    0.00155    0.00641   -0.02407
 67 Li   -0.00242   -0.00194   -0.00825
 68 Li   -0.00166   -0.00991    0.01139
 69 Li    0.00033   -0.00242   -0.01044
 70 Li    0.00222   -0.00312   -0.02159
 71 Li   -0.00488   -0.00310    0.01769
 72 Li    0.00665   -0.00186    0.02190
 73 Li   -0.00030    0.00036   -0.02059
 74 Li   -0.00381    0.00154    0.03746
 75 Li    0.00045    0.00148    0.04220
 76 Li    0.00437    0.00094   -0.01413
 77 Li   -0.00201    0.00098   -0.01487
 78 Li    0.00178    0.00298    0.04904
 79 Li    0.00547    0.00200   -0.02662
 80 Li   -0.00774    0.00101   -0.02583
 81 Li   -0.00168    0.00090   -0.00954
 82 Li   -0.00094   -0.00079    0.02431
 83 Li    0.00138   -0.00098    0.02691
 84 Li   -0.00002   -0.01569    0.04456
 85 Li   -0.01587   -0.00192    0.03378
 86 Li   -0.01031   -0.07259    0.04951
 87 Li    0.02640   -0.00471    0.03571
 88 Li   -0.00385   -0.00713    0.04280
 89 Li   -0.03751    0.04418    0.03923
 90 Li    0.03954    0.05221    0.03551
 91 Li   -0.07093   -0.01325   -0.05492
 92 Li   -0.01963   -0.01084   -0.03721
 93 Li    0.05076   -0.00430   -0.06454
 94 Li   -0.01204   -0.01618   -0.01299
 95 Li    0.01066    0.06788    0.03009
 96 Li    0.05303   -0.01233   -0.00113
 97 Li   -0.02334    0.00624    0.02064
 98 Li    0.05606    0.04274    0.04124
 99 Li   -0.07948    0.04564    0.04071
100 Li    0.01088    0.04090   -0.07139
101 Li    0.10447   -0.04044   -0.04106
102 Li   -0.09714   -0.03428   -0.08315
103 Li    0.02772    0.06056    0.13543
104 Li   -0.05134    0.05334    0.08877
105 Li    0.00212   -0.12034   -0.14146
106 Li    0.01014   -0.04770   -0.01259
107 Li    0.02249   -0.04655    0.00243
108 Li    0.02184    0.06822    0.21893
109 N     0.00017   -0.00019    0.08121
110 N    -0.00032   -0.00012    0.08118
111 N    -0.00005    0.00015    0.08020
112 N     0.00005   -0.00061    0.08128
113 N    -0.00041   -0.00085   -0.02523
114 N     0.00039   -0.00056    0.08132
115 N     0.00034   -0.00012    0.08041
116 N    -0.00061    0.00013    0.08073
117 N     0.00017    0.00005    0.08039
118 N    -0.00126   -0.00262   -0.01959
119 N     0.00121   -0.00259   -0.01951
120 N     0.00000    0.00131   -0.01612
121 N    -0.00305   -0.00040   -0.01856
122 N    -0.00034   -0.00024    0.01118
123 N     0.00348   -0.00043   -0.01764
124 N     0.00057    0.00063   -0.01579
125 N    -0.00204    0.00284   -0.01110
126 N     0.00160    0.00281   -0.00835
127 N     0.00134    0.00133   -0.00066
128 N    -0.00064    0.00065   -0.00044
129 N    -0.00075   -0.00120   -0.00512
130 N    -0.00133    0.00052   -0.00667
131 N    -0.00037   -0.00590    0.02900
132 N     0.00212   -0.00002   -0.00923
133 N     0.00000   -0.00124   -0.00589
134 N    -0.00312    0.00415   -0.02287
135 N     0.00282    0.00341   -0.02722
136 N     0.00515   -0.00907   -0.03409
137 N     0.00250   -0.01776   -0.03427
138 N    -0.01044   -0.03381    0.00353
139 N    -0.08358   -0.02482   -0.03264
140 N    -0.01242   -0.09292   -0.18122
141 N     0.10383   -0.04777   -0.02969
142 N    -0.00181   -0.01477    0.00186
143 N    -0.10715    0.10149   -0.01931
144 N     0.08437    0.10259   -0.01408

System changes: positions 

Initializing position-dependent things.

Density initialized from wave functions
                                                  
                                                  
                                                  
                                                  
                                                  
                                                  
            Li      Li     Lii                    
           Li  N   Li   N  Li   N                 
              Li  N   Li  N    Li N               
             LiLiLi  Li LLi   LiLLi               
               Li   N   Li   N  Li   N            
            Li N  LiLi  N LiLi  N  Li             
           Li      LLi     LiLi      Li           
              Li  N   Li  N    Li N               
             LiLiLi  Li LLi   LiLLi               
               Li   N   LiLi N  Li   N            
            Li N  LiLi  N   Li  N Li              
           Li Li   LLiLi   LiLiLi    Li           
             Li   N  Li   N   Li  N               
               LiLi     LLi     LLi               
            Li Li LiNi  LiLiLN  LiLi N            
               N        N       N                 
           Li Li   LLiLi   LiLiLi    Li           
             LiLi N  Li LiN   LiLiN               
                 Li N    Li  N   Li  N            
               Li Li    LiLi    LiLi              
                                                  
                    Li       Li      Li           
                                                  
                                                  
                                                  
                                                  

Positions:
   0 Li     3.498652    4.433310   24.383528    ( 0.0000,  0.0000,  0.0000)
   1 Li     1.717695    0.991763    8.714294    ( 0.0000,  0.0000,  0.0000)
   2 Li     5.153197    0.991763    8.714294    ( 0.0000,  0.0000,  0.0000)
   3 Li     8.588596    0.991763    8.714294    ( 0.0000,  0.0000,  0.0000)
   4 Li    -0.000071    3.967140    8.714294    ( 0.0000,  0.0000,  0.0000)
   5 Li     3.435431    3.967140    8.714294    ( 0.0000,  0.0000,  0.0000)
   6 Li     6.870830    3.967140    8.714294    ( 0.0000,  0.0000,  0.0000)
   7 Li    -1.717786    6.942428    8.714294    ( 0.0000,  0.0000,  0.0000)
   8 Li     1.717717    6.942428    8.714294    ( 0.0000,  0.0000,  0.0000)
   9 Li     5.153115    6.942428    8.714294    ( 0.0000,  0.0000,  0.0000)
  10 Li     0.000000    0.000000   10.653504    ( 0.0000,  0.0000,  0.0000)
  11 Li     3.435502    0.000000   10.653504    ( 0.0000,  0.0000,  0.0000)
  12 Li     6.870901    0.000000   10.653504    ( 0.0000,  0.0000,  0.0000)
  13 Li    -0.000010    1.983525   10.653504    ( 0.0000,  0.0000,  0.0000)
  14 Li     3.435389    1.983525   10.653504    ( 0.0000,  0.0000,  0.0000)
  15 Li     6.870891    1.983525   10.653504    ( 0.0000,  0.0000,  0.0000)
  16 Li    -1.717766    2.975377   10.653504    ( 0.0000,  0.0000,  0.0000)
  17 Li     1.717736    2.975377   10.653504    ( 0.0000,  0.0000,  0.0000)
  18 Li     5.153135    2.975377   10.653504    ( 0.0000,  0.0000,  0.0000)
  19 Li    -1.717776    4.958903   10.653504    ( 0.0000,  0.0000,  0.0000)
  20 Li     1.717623    4.958903   10.653504    ( 0.0000,  0.0000,  0.0000)
  21 Li     5.153125    4.958903   10.653504    ( 0.0000,  0.0000,  0.0000)
  22 Li    -3.435480    5.950666   10.653504    ( 0.0000,  0.0000,  0.0000)
  23 Li     0.000022    5.950666   10.653504    ( 0.0000,  0.0000,  0.0000)
  24 Li     3.435421    5.950666   10.653504    ( 0.0000,  0.0000,  0.0000)
  25 Li    -3.435490    7.934191   10.653504    ( 0.0000,  0.0000,  0.0000)
  26 Li    -0.000091    7.934191   10.653504    ( 0.0000,  0.0000,  0.0000)
  27 Li     3.435411    7.934191   10.653504    ( 0.0000,  0.0000,  0.0000)
  28 Li     1.717695    0.991763   12.627088    ( 0.0000,  0.0000,  0.0000)
  29 Li     5.153197    0.991763   12.627088    ( 0.0000,  0.0000,  0.0000)
  30 Li     8.588596    0.991763   12.627088    ( 0.0000,  0.0000,  0.0000)
  31 Li    -0.000071    3.967140   12.627088    ( 0.0000,  0.0000,  0.0000)
  32 Li     3.435431    3.967140   12.627088    ( 0.0000,  0.0000,  0.0000)
  33 Li     6.870830    3.967140   12.627088    ( 0.0000,  0.0000,  0.0000)
  34 Li    -1.717786    6.942428   12.627088    ( 0.0000,  0.0000,  0.0000)
  35 Li     1.717717    6.942428   12.627088    ( 0.0000,  0.0000,  0.0000)
  36 Li     5.153115    6.942428   12.627088    ( 0.0000,  0.0000,  0.0000)
  37 Li     0.000000    0.000000   14.576373    ( 0.0000,  0.0000,  0.0000)
  38 Li     3.435502    0.000000   14.576373    ( 0.0000,  0.0000,  0.0000)
  39 Li     6.870901    0.000000   14.576373    ( 0.0000,  0.0000,  0.0000)
  40 Li    -0.000010    1.983525   14.576373    ( 0.0000,  0.0000,  0.0000)
  41 Li     3.435389    1.983525   14.576373    ( 0.0000,  0.0000,  0.0000)
  42 Li     6.870891    1.983525   14.576373    ( 0.0000,  0.0000,  0.0000)
  43 Li    -1.717766    2.975377   14.576373    ( 0.0000,  0.0000,  0.0000)
  44 Li     1.717736    2.975377   14.576373    ( 0.0000,  0.0000,  0.0000)
  45 Li     5.153135    2.975377   14.576373    ( 0.0000,  0.0000,  0.0000)
  46 Li    -1.717776    4.958903   14.576373    ( 0.0000,  0.0000,  0.0000)
  47 Li     1.717623    4.958903   14.576373    ( 0.0000,  0.0000,  0.0000)
  48 Li     5.153125    4.958903   14.576373    ( 0.0000,  0.0000,  0.0000)
  49 Li    -3.435480    5.950666   14.576373    ( 0.0000,  0.0000,  0.0000)
  50 Li     0.000022    5.950666   14.576373    ( 0.0000,  0.0000,  0.0000)
  51 Li     3.435421    5.950666   14.576373    ( 0.0000,  0.0000,  0.0000)
  52 Li    -3.435490    7.934191   14.576373    ( 0.0000,  0.0000,  0.0000)
  53 Li    -0.000091    7.934191   14.576373    ( 0.0000,  0.0000,  0.0000)
  54 Li     3.435411    7.934191   14.576373    ( 0.0000,  0.0000,  0.0000)
  55 Li     1.717141    0.990767   16.537762    ( 0.0000,  0.0000,  0.0000)
  56 Li     5.153745    0.990738   16.537820    ( 0.0000,  0.0000,  0.0000)
  57 Li     8.588586    0.992031   16.537801    ( 0.0000,  0.0000,  0.0000)
  58 Li    -0.001408    3.967044   16.538317    ( 0.0000,  0.0000,  0.0000)
  59 Li     3.435425    3.967262   16.564746    ( 0.0000,  0.0000,  0.0000)
  60 Li     6.872166    3.967028   16.538644    ( 0.0000,  0.0000,  0.0000)
  61 Li    -1.717727    6.942436   16.537789    ( 0.0000,  0.0000,  0.0000)
  62 Li     1.717146    6.943383   16.540559    ( 0.0000,  0.0000,  0.0000)
  63 Li     5.153618    6.943352   16.541363    ( 0.0000,  0.0000,  0.0000)
  64 Li    -0.000860    0.001608   18.488418    ( 0.0000,  0.0000,  0.0000)
  65 Li     3.435332   -0.000034   18.492992    ( 0.0000,  0.0000,  0.0000)
  66 Li     6.871492    0.001409   18.488220    ( 0.0000,  0.0000,  0.0000)
  67 Li     0.000151    1.983570   18.492594    ( 0.0000,  0.0000,  0.0000)
  68 Li     3.435623    1.981995   18.509135    ( 0.0000,  0.0000,  0.0000)
  69 Li     6.870815    1.983446   18.492609    ( 0.0000,  0.0000,  0.0000)
  70 Li    -1.717654    2.974098   18.487062    ( 0.0000,  0.0000,  0.0000)
  71 Li     1.716137    2.975042   18.510920    ( 0.0000,  0.0000,  0.0000)
  72 Li     5.154369    2.975147   18.512176    ( 0.0000,  0.0000,  0.0000)
  73 Li    -1.717512    4.960021   18.488183    ( 0.0000,  0.0000,  0.0000)
  74 Li     1.717438    4.959804   18.517222    ( 0.0000,  0.0000,  0.0000)
  75 Li     5.153528    4.959657   18.518672    ( 0.0000,  0.0000,  0.0000)
  76 Li    -3.435427    5.949914   18.495689    ( 0.0000,  0.0000,  0.0000)
  77 Li    -0.000364    5.949940   18.494348    ( 0.0000,  0.0000,  0.0000)
  78 Li     3.435344    5.951121   18.520776    ( 0.0000,  0.0000,  0.0000)
  79 Li    -3.433473    7.934612   18.487879    ( 0.0000,  0.0000,  0.0000)
  80 Li    -0.001703    7.934578   18.487277    ( 0.0000,  0.0000,  0.0000)
  81 Li     3.435378    7.933897   18.498888    ( 0.0000,  0.0000,  0.0000)
  82 Li     1.711205    0.978840   20.462605    ( 0.0000,  0.0000,  0.0000)
  83 Li     5.159677    0.977248   20.462392    ( 0.0000,  0.0000,  0.0000)
  84 Li     8.588499    0.990906   20.468017    ( 0.0000,  0.0000,  0.0000)
  85 Li    -0.027391    3.961567   20.457630    ( 0.0000,  0.0000,  0.0000)
  86 Li     3.429169    3.920295   20.540257    ( 0.0000,  0.0000,  0.0000)
  87 Li     6.905285    3.959536   20.454943    ( 0.0000,  0.0000,  0.0000)
  88 Li    -1.717822    6.942013   20.467581    ( 0.0000,  0.0000,  0.0000)
  89 Li     1.680135    6.986319   20.448247    ( 0.0000,  0.0000,  0.0000)
  90 Li     5.190503    6.991673   20.447624    ( 0.0000,  0.0000,  0.0000)
  91 Li     0.008852    0.001946   22.587698    ( 0.0000,  0.0000,  0.0000)
  92 Li     3.437296    0.001672   22.584504    ( 0.0000,  0.0000,  0.0000)
  93 Li     6.863945    0.000845   22.585011    ( 0.0000,  0.0000,  0.0000)
  94 Li    -0.002654    1.984003   22.592128    ( 0.0000,  0.0000,  0.0000)
  95 Li     3.435913    1.977810   22.596401    ( 0.0000,  0.0000,  0.0000)
  96 Li     6.871980    1.982890   22.596820    ( 0.0000,  0.0000,  0.0000)
[...]

Forces in eV/Ang:
  0 Li    0.00094   -0.00304    0.04903
  1 Li    0.00002    0.00002   -0.02456
  2 Li   -0.00001    0.00006   -0.02456
  3 Li    0.00000    0.00002   -0.02465
  4 Li    0.00004   -0.00003   -0.02454
  5 Li   -0.00002   -0.00001   -0.02698
  6 Li   -0.00002   -0.00001   -0.02455
  7 Li    0.00002   -0.00002   -0.02465
  8 Li   -0.00000    0.00001   -0.02457
  9 Li   -0.00001   -0.00001   -0.02459
 10 Li    0.00001    0.00009   -0.01013
 11 Li   -0.00072    0.00015   -0.01014
 12 Li   -0.00018   -0.00009   -0.01012
 13 Li   -0.00012    0.00044   -0.01012
 14 Li    0.00045    0.00014   -0.01024
 15 Li   -0.00028    0.00027   -0.01012
 16 Li    0.00032   -0.00028   -0.01011
 17 Li   -0.00048   -0.00015   -0.01022
 18 Li    0.00011   -0.00044   -0.01021
 19 Li    0.00021    0.00011   -0.01011
 20 Li    0.00069   -0.00017   -0.01019
 21 Li   -0.00000   -0.00006   -0.01018
 22 Li    0.00008    0.00010   -0.01009
 23 Li   -0.00074    0.00022   -0.01010
 24 Li   -0.00021   -0.00004   -0.01017
 25 Li    0.00023    0.00007   -0.01013
 26 Li    0.00071   -0.00022   -0.01013
 27 Li   -0.00005   -0.00005   -0.01008
 28 Li   -0.00012   -0.00019   -0.01543
 29 Li    0.00015   -0.00012   -0.01540
 30 Li    0.00000    0.00005   -0.01521
 31 Li   -0.00023   -0.00004   -0.01525
 32 Li   -0.00002    0.00006   -0.00898
 33 Li    0.00022   -0.00001   -0.01517
 34 Li    0.00003   -0.00009   -0.01524
 35 Li   -0.00009    0.00019   -0.01488
 36 Li    0.00006    0.00013   -0.01475
 37 Li   -0.00048   -0.00046    0.00826
 38 Li   -0.00069    0.00043    0.00852
 39 Li    0.00027   -0.00051    0.00811
 40 Li    0.00013    0.00085    0.00856
 41 Li    0.00048    0.00168    0.01349
 42 Li   -0.00056    0.00075    0.00861
 43 Li    0.00024   -0.00045    0.00750
 44 Li    0.00058    0.00073    0.01358
 45 Li   -0.00088    0.00042    0.01362
 46 Li    0.00012    0.00029    0.00774
 47 Li    0.00156   -0.00053    0.01372
 48 Li   -0.00079   -0.00038    0.01377
 49 Li   -0.00078    0.00000    0.00940
 50 Li    0.00006    0.00013    0.00913
 51 Li   -0.00017   -0.00077    0.01358
 52 Li   -0.00005   -0.00061    0.00820
 53 Li    0.00090   -0.00078    0.00797
 54 Li    0.00003   -0.00080    0.00975
 55 Li    0.00469    0.00905    0.01110
 56 Li   -0.00467    0.00968    0.01022
 57 Li   -0.00007   -0.00281    0.01521
 58 Li    0.01236    0.00179    0.00523
 59 Li    0.00058    0.00461    0.00514
 60 Li   -0.01286    0.00214    0.00227
 61 Li   -0.00057   -0.00146    0.01463
 62 Li    0.00854   -0.01118   -0.00633
 63 Li   -0.00799   -0.01153   -0.00827
 64 Li    0.00173    0.00741   -0.02581
 65 Li    0.00140    0.00044   -0.00312
 66 Li    0.00134    0.00634   -0.02423
 67 Li   -0.00318   -0.00217   -0.00696
 68 Li   -0.00186   -0.01044    0.00478
 69 Li    0.00077   -0.00264   -0.00962
 70 Li    0.00240   -0.00272   -0.02030
 71 Li   -0.00493   -0.00326    0.01134
 72 Li    0.00706   -0.00204    0.01576
 73 Li   -0.00048   -0.00037   -0.01981
 74 Li   -0.00437    0.00141    0.03152
 75 Li    0.00063    0.00134    0.03628
 76 Li    0.00501    0.00162   -0.01632
 77 Li   -0.00225    0.00172   -0.01624
 78 Li    0.00192    0.00346    0.04312
 79 Li    0.00498    0.00193   -0.02722
 80 Li   -0.00766    0.00088   -0.02575
 81 Li   -0.00184    0.00138   -0.01272
 82 Li   -0.00110   -0.00001    0.02681
 83 Li    0.00162    0.00014    0.02958
 84 Li    0.00000   -0.01630    0.04558
 85 Li   -0.01316   -0.00069    0.04023
 86 Li   -0.00927   -0.06460    0.06294
 87 Li    0.02253   -0.00332    0.04422
 88 Li   -0.00393   -0.00774    0.04390
 89 Li   -0.03233    0.03814    0.05559
 90 Li    0.03419    0.04516    0.05410
 91 Li   -0.07426   -0.01324   -0.05929
 92 Li   -0.02383   -0.01588   -0.03775
 93 Li    0.04921   -0.00267   -0.06954
 94 Li   -0.01436   -0.02308   -0.01311
 95 Li    0.01259    0.06890    0.02452
 96 Li    0.06192   -0.01927   -0.00093
 97 Li   -0.02702    0.00603    0.02473
 98 Li    0.05647    0.04292    0.03498
 99 Li   -0.08445    0.04600    0.03368
100 Li    0.01465    0.04228   -0.07683
101 Li    0.10701   -0.04282   -0.05451
102 Li   -0.09512   -0.03642   -0.09899
103 Li    0.03498    0.06643    0.13923
104 Li   -0.06358    0.05719    0.09152
105 Li   -0.00004   -0.12049   -0.16160
106 Li    0.01214   -0.04949   -0.01300
107 Li    0.02589   -0.04942    0.00396
108 Li    0.02517    0.08220    0.22391
109 N     0.00013   -0.00027    0.08147
110 N    -0.00028   -0.00020    0.08143
111 N    -0.00004    0.00014    0.08001
112 N    -0.00005   -0.00062    0.08166
113 N    -0.00041   -0.00084   -0.02571
114 N     0.00048   -0.00057    0.08176
115 N     0.00034   -0.00012    0.08028
116 N    -0.00066    0.00020    0.08129
117 N     0.00021    0.00013    0.08098
118 N    -0.00089   -0.00196   -0.02021
119 N     0.00083   -0.00191   -0.02020
120 N     0.00000    0.00117   -0.01726
121 N    -0.00218   -0.00033   -0.01938
122 N    -0.00032   -0.00008    0.01609
123 N     0.00259   -0.00033   -0.01851
124 N     0.00053    0.00058   -0.01693
125 N    -0.00151    0.00212   -0.01174
126 N     0.00112    0.00207   -0.00880
127 N     0.00158    0.00243   -0.00238
128 N    -0.00078    0.00184   -0.00174
129 N    -0.00078   -0.00196   -0.00517
130 N    -0.00049    0.00107   -0.00631
131 N    -0.00047   -0.00636    0.03138
132 N     0.00136    0.00053   -0.00830
133 N    -0.00017   -0.00216   -0.00647
134 N    -0.00211    0.00357   -0.02107
135 N     0.00198    0.00288   -0.02567
136 N     0.00337   -0.01097   -0.03383
137 N     0.00384   -0.01889   -0.03361
138 N    -0.01049   -0.02650   -0.00318
139 N    -0.08097   -0.02279   -0.03046
140 N    -0.01275   -0.09481   -0.16633
141 N     0.09877   -0.04432   -0.02676
142 N    -0.00028   -0.01202   -0.00387
143 N    -0.10009    0.09600   -0.01431
144 N     0.07926    0.09783   -0.00830

System changes: positions 

Initializing position-dependent things.

Density initialized from wave functions
                                                  
                                                  
                                                  
                                                  
                                                  
                                                  
            Li      Li     Lii                    
           Li  N   Li   N  Li   N                 
              Li  N   Li  N    Li N               
             LiLiLi  Li LLi   LiLLi               
               Li   N   Li   N  Li   N            
            Li N  LiLi  N LiLi  N  Li             
           Li      LLiLi   LiLiLi    Li           
              Li  N       N       N               
             LiLiLi  Li LLi   LiLLi               
               Li   N   LiLi N  Li   N            
            Li N  LiLi  N   Li  N Li              
           Li Li   LLiLi   LiLiLi    Li           
             Li   N  Li   N   Li  N               
               LiLi     LLi     LLi               
            Li Li LiNi  LiLiLN  LiLi N            
               N        N       N                 
           Li Li   LLiLi   LiLiLi    Li           
             LiLi N  Li LiN   LiLiN               
                 Li N    Li  N   Li  N            
               Li Li    LiLi    LiLi              
                                                  
                    Li       Li      Li           
                                                  
                                                  
                                                  
                                                  

Positions:
   0 Li     3.497908    4.425664   24.359429    ( 0.0000,  0.0000,  0.0000)
   1 Li     1.717695    0.991763    8.714294    ( 0.0000,  0.0000,  0.0000)
   2 Li     5.153197    0.991763    8.714294    ( 0.0000,  0.0000,  0.0000)
   3 Li     8.588596    0.991763    8.714294    ( 0.0000,  0.0000,  0.0000)
   4 Li    -0.000071    3.967140    8.714294    ( 0.0000,  0.0000,  0.0000)
   5 Li     3.435431    3.967140    8.714294    ( 0.0000,  0.0000,  0.0000)
   6 Li     6.870830    3.967140    8.714294    ( 0.0000,  0.0000,  0.0000)
   7 Li    -1.717786    6.942428    8.714294    ( 0.0000,  0.0000,  0.0000)
   8 Li     1.717717    6.942428    8.714294    ( 0.0000,  0.0000,  0.0000)
   9 Li     5.153115    6.942428    8.714294    ( 0.0000,  0.0000,  0.0000)
  10 Li     0.000000    0.000000   10.653504    ( 0.0000,  0.0000,  0.0000)
  11 Li     3.435502    0.000000   10.653504    ( 0.0000,  0.0000,  0.0000)
  12 Li     6.870901    0.000000   10.653504    ( 0.0000,  0.0000,  0.0000)
  13 Li    -0.000010    1.983525   10.653504    ( 0.0000,  0.0000,  0.0000)
  14 Li     3.435389    1.983525   10.653504    ( 0.0000,  0.0000,  0.0000)
  15 Li     6.870891    1.983525   10.653504    ( 0.0000,  0.0000,  0.0000)
  16 Li    -1.717766    2.975377   10.653504    ( 0.0000,  0.0000,  0.0000)
  17 Li     1.717736    2.975377   10.653504    ( 0.0000,  0.0000,  0.0000)
  18 Li     5.153135    2.975377   10.653504    ( 0.0000,  0.0000,  0.0000)
  19 Li    -1.717776    4.958903   10.653504    ( 0.0000,  0.0000,  0.0000)
  20 Li     1.717623    4.958903   10.653504    ( 0.0000,  0.0000,  0.0000)
  21 Li     5.153125    4.958903   10.653504    ( 0.0000,  0.0000,  0.0000)
  22 Li    -3.435480    5.950666   10.653504    ( 0.0000,  0.0000,  0.0000)
  23 Li     0.000022    5.950666   10.653504    ( 0.0000,  0.0000,  0.0000)
  24 Li     3.435421    5.950666   10.653504    ( 0.0000,  0.0000,  0.0000)
  25 Li    -3.435490    7.934191   10.653504    ( 0.0000,  0.0000,  0.0000)
  26 Li    -0.000091    7.934191   10.653504    ( 0.0000,  0.0000,  0.0000)
  27 Li     3.435411    7.934191   10.653504    ( 0.0000,  0.0000,  0.0000)
  28 Li     1.717695    0.991763   12.627088    ( 0.0000,  0.0000,  0.0000)
  29 Li     5.153197    0.991763   12.627088    ( 0.0000,  0.0000,  0.0000)
  30 Li     8.588596    0.991763   12.627088    ( 0.0000,  0.0000,  0.0000)
  31 Li    -0.000071    3.967140   12.627088    ( 0.0000,  0.0000,  0.0000)
  32 Li     3.435431    3.967140   12.627088    ( 0.0000,  0.0000,  0.0000)
  33 Li     6.870830    3.967140   12.627088    ( 0.0000,  0.0000,  0.0000)
  34 Li    -1.717786    6.942428   12.627088    ( 0.0000,  0.0000,  0.0000)
  35 Li     1.717717    6.942428   12.627088    ( 0.0000,  0.0000,  0.0000)
  36 Li     5.153115    6.942428   12.627088    ( 0.0000,  0.0000,  0.0000)
  37 Li     0.000000    0.000000   14.576373    ( 0.0000,  0.0000,  0.0000)
  38 Li     3.435502    0.000000   14.576373    ( 0.0000,  0.0000,  0.0000)
  39 Li     6.870901    0.000000   14.576373    ( 0.0000,  0.0000,  0.0000)
  40 Li    -0.000010    1.983525   14.576373    ( 0.0000,  0.0000,  0.0000)
  41 Li     3.435389    1.983525   14.576373    ( 0.0000,  0.0000,  0.0000)
  42 Li     6.870891    1.983525   14.576373    ( 0.0000,  0.0000,  0.0000)
  43 Li    -1.717766    2.975377   14.576373    ( 0.0000,  0.0000,  0.0000)
  44 Li     1.717736    2.975377   14.576373    ( 0.0000,  0.0000,  0.0000)
  45 Li     5.153135    2.975377   14.576373    ( 0.0000,  0.0000,  0.0000)
  46 Li    -1.717776    4.958903   14.576373    ( 0.0000,  0.0000,  0.0000)
  47 Li     1.717623    4.958903   14.576373    ( 0.0000,  0.0000,  0.0000)
  48 Li     5.153125    4.958903   14.576373    ( 0.0000,  0.0000,  0.0000)
  49 Li    -3.435480    5.950666   14.576373    ( 0.0000,  0.0000,  0.0000)
  50 Li     0.000022    5.950666   14.576373    ( 0.0000,  0.0000,  0.0000)
  51 Li     3.435421    5.950666   14.576373    ( 0.0000,  0.0000,  0.0000)
  52 Li    -3.435490    7.934191   14.576373    ( 0.0000,  0.0000,  0.0000)
  53 Li    -0.000091    7.934191   14.576373    ( 0.0000,  0.0000,  0.0000)
  54 Li     3.435411    7.934191   14.576373    ( 0.0000,  0.0000,  0.0000)
  55 Li     1.717507    0.991481   16.537380    ( 0.0000,  0.0000,  0.0000)
  56 Li     5.153390    0.991500   16.537398    ( 0.0000,  0.0000,  0.0000)
  57 Li     8.588573    0.991810   16.538071    ( 0.0000,  0.0000,  0.0000)
  58 Li    -0.000417    3.967214   16.537547    ( 0.0000,  0.0000,  0.0000)
  59 Li     3.435491    3.967782   16.570205    ( 0.0000,  0.0000,  0.0000)
  60 Li     6.871119    3.967226   16.537698    ( 0.0000,  0.0000,  0.0000)
  61 Li    -1.717767    6.942293   16.538009    ( 0.0000,  0.0000,  0.0000)
  62 Li     1.717906    6.942427   16.539370    ( 0.0000,  0.0000,  0.0000)
  63 Li     5.152893    6.942341   16.540230    ( 0.0000,  0.0000,  0.0000)
  64 Li    -0.000988    0.002464   18.484747    ( 0.0000,  0.0000,  0.0000)
  65 Li     3.435328    0.000157   18.491941    ( 0.0000,  0.0000,  0.0000)
  66 Li     6.871564    0.002131   18.484578    ( 0.0000,  0.0000,  0.0000)
  67 Li     0.000322    1.983618   18.491238    ( 0.0000,  0.0000,  0.0000)
  68 Li     3.435668    1.981269   18.514967    ( 0.0000,  0.0000,  0.0000)
  69 Li     6.870659    1.983440   18.491083    ( 0.0000,  0.0000,  0.0000)
  70 Li    -1.717559    2.973529   18.483289    ( 0.0000,  0.0000,  0.0000)
  71 Li     1.715548    2.974914   18.517825    ( 0.0000,  0.0000,  0.0000)
  72 Li     5.154849    2.975136   18.519792    ( 0.0000,  0.0000,  0.0000)
  73 Li    -1.717383    4.960328   18.484756    ( 0.0000,  0.0000,  0.0000)
  74 Li     1.717515    4.960128   18.527604    ( 0.0000,  0.0000,  0.0000)
  75 Li     5.153442    4.959915   18.529899    ( 0.0000,  0.0000,  0.0000)
  76 Li    -3.435426    5.949547   18.494754    ( 0.0000,  0.0000,  0.0000)
  77 Li    -0.000420    5.949602   18.492949    ( 0.0000,  0.0000,  0.0000)
  78 Li     3.435373    5.951054   18.533163    ( 0.0000,  0.0000,  0.0000)
  79 Li    -3.432504    7.934999   18.483947    ( 0.0000,  0.0000,  0.0000)
  80 Li    -0.002565    7.934892   18.483247    ( 0.0000,  0.0000,  0.0000)
  81 Li     3.435321    7.933627   18.499199    ( 0.0000,  0.0000,  0.0000)
  82 Li     1.710942    0.978001   20.462557    ( 0.0000,  0.0000,  0.0000)
  83 Li     5.160047    0.976091   20.462503    ( 0.0000,  0.0000,  0.0000)
  84 Li     8.588478    0.988640   20.472045    ( 0.0000,  0.0000,  0.0000)
  85 Li    -0.032280    3.960500   20.456088    ( 0.0000,  0.0000,  0.0000)
  86 Li     3.426481    3.900700   20.534977    ( 0.0000,  0.0000,  0.0000)
  87 Li     6.912795    3.957809   20.452365    ( 0.0000,  0.0000,  0.0000)
  88 Li    -1.718414    6.941173   20.471323    ( 0.0000,  0.0000,  0.0000)
  89 Li     1.669807    6.998414   20.441263    ( 0.0000,  0.0000,  0.0000)
  90 Li     5.201248    7.005845   20.439056    ( 0.0000,  0.0000,  0.0000)
  91 Li     0.006702    0.001987   22.579085    ( 0.0000,  0.0000,  0.0000)
  92 Li     3.438095    0.004545   22.577923    ( 0.0000,  0.0000,  0.0000)
  93 Li     6.867579    0.000484   22.574885    ( 0.0000,  0.0000,  0.0000)
  94 Li    -0.001366    1.986154   22.589861    ( 0.0000,  0.0000,  0.0000)
  95 Li     3.435856    1.979382   22.603643    ( 0.0000,  0.0000,  0.0000)
  96 Li     6.870089    1.984941   22.596770    ( 0.0000,  0.0000,  0.0000)
  97 Li    -1.713585    2.978578   22.608814    ( 0.0000,  0.0000,  0.0000)
  98 Li     1.702255    2.978571   22.595069    ( 0.0000,  0.0000,  0.0000)
  99 Li     5.176587    2.977632   22.586762    ( 0.0000,  0.0000,  0.0000)
 100 Li    -1.719634    4.953645   22.568081    ( 0.0000,  0.0000,  0.0000)
 101 Li     1.693242    4.982600   22.470831    ( 0.0000,  0.0000,  0.0000)
 102 Li     5.180965    4.980518   22.403630    ( 0.0000,  0.0000,  0.0000)
 103 Li    -3.434918    5.948545   22.674142    ( 0.0000,  0.0000,  0.0000)
 104 Li     0.000241    5.951970   22.645387    ( 0.0000,  0.0000,  0.0000)
 105 Li     3.435500    5.996065   22.275391    ( 0.0000,  0.0000,  0.0000)
 106 Li    -3.437533    7.943400   22.598333    ( 0.0000,  0.0000,  0.0000)
 107 Li    -0.001983    7.944584   22.603873    ( 0.0000,  0.0000,  0.0000)
 108 Li     3.432570    7.919684   22.723526    ( 0.0000,  0.0000,  0.0000)
 109 N      1.717695    0.991763   10.638094    ( 0.0000,  0.0000,  0.0000)
 110 N      5.153197    0.991763   10.638094    ( 0.0000,  0.0000,  0.0000)
 111 N      8.588596    0.991763   10.638094    ( 0.0000,  0.0000,  0.0000)
 112 N     -0.000071    3.967140   10.638094    ( 0.0000,  0.0000,  0.0000)
 113 N      3.435431    3.967140   10.638094    ( 0.0000,  0.0000,  0.0000)
 114 N      6.870830    3.967140   10.638094    ( 0.0000,  0.0000,  0.0000)
 115 N     -1.717786    6.942428   10.638094    ( 0.0000,  0.0000,  0.0000)
 116 N      1.717717    6.942428   10.638094    ( 0.0000,  0.0000,  0.0000)
 117 N      5.153115    6.942428   10.638094    ( 0.0000,  0.0000,  0.0000)
 118 N      1.717695    0.991763   14.562149    ( 0.0000,  0.0000,  0.0000)
 119 N      5.153197    0.991763   14.562149    ( 0.0000,  0.0000,  0.0000)
 120 N      8.588596    0.991763   14.562149    ( 0.0000,  0.0000,  0.0000)
 121 N     -0.000071    3.967140   14.562149    ( 0.0000,  0.0000,  0.0000)
 122 N      3.435431    3.967140   14.562149    ( 0.0000,  0.0000,  0.0000)
 123 N      6.870830    3.967140   14.562149    ( 0.0000,  0.0000,  0.0000)
 124 N     -1.717786    6.942428   14.562149    ( 0.0000,  0.0000,  0.0000)
 125 N      1.717717    6.942428   14.562149    ( 0.0000,  0.0000,  0.0000)
 126 N      5.153115    6.942428   14.562149    ( 0.0000,  0.0000,  0.0000)
 127 N      1.717322    0.990917   18.475329    ( 0.0000,  0.0000,  0.0000)
 128 N      5.153488    0.990841   18.475087    ( 0.0000,  0.0000,  0.0000)
 129 N      8.588577    0.991641   18.480143    ( 0.0000,  0.0000,  0.0000)
 130 N     -0.001827    3.966626   18.473111    ( 0.0000,  0.0000,  0.0000)
 131 N      3.434983    3.964036   18.540378    ( 0.0000,  0.0000,  0.0000)
 132 N      6.873159    3.966499   18.472264    ( 0.0000,  0.0000,  0.0000)
 133 N     -1.717773    6.942490   18.479988    ( 0.0000,  0.0000,  0.0000)
 134 N      1.714951    6.945571   18.472192    ( 0.0000,  0.0000,  0.0000)
 135 N      5.155838    6.946057   18.473026    ( 0.0000,  0.0000,  0.0000)
 136 N      1.720744    1.002284   22.384872    ( 0.0000,  0.0000,  0.0000)
 137 N      5.151390    1.002404   22.385430    ( 0.0000,  0.0000,  0.0000)
 138 N      8.589714    0.987679   22.402570    ( 0.0000,  0.0000,  0.0000)
 139 N      0.006533    3.972000   22.380700    ( 0.0000,  0.0000,  0.0000)
 140 N      3.440339    4.003817   22.561537    ( 0.0000,  0.0000,  0.0000)
 141 N      6.866160    3.972087   22.377949    ( 0.0000,  0.0000,  0.0000)
 142 N     -1.719275    6.943541   22.400848    ( 0.0000,  0.0000,  0.0000)
 143 N      1.722414    6.940226   22.369692    ( 0.0000,  0.0000,  0.0000)
 144 N      5.148919    6.938709   22.367522    ( 0.0000,  0.0000,  0.0000)

Unit cell:
           periodic     x           y           z      points  spacing
  1. axis:    yes   10.306300    0.000000    0.000000    54     0.1653
  2. axis:    yes   -5.153194    8.925954    0.000000    54     0.1653
  3. axis:    yes    0.000000    0.000000   29.633400   147     0.2016

  Lengths:  10.306300  10.306700  29.633400
  Angles:   90.000000  90.000000 119.999001

Effective grid spacing dv^(1/3) = 0.1853

                     log10-error:    total        iterations:
           time      wfs    density  energy       fermi  poisson
iter:   1  23:47:57  -3.18         -503.250059    3             
iter:   2  23:48:16  -4.24  -2.85  -503.251391    6             
iter:   3  23:48:36  -5.01  -2.46  -503.250224    4             
iter:   4  23:48:55  -5.65  -2.92  -503.247613    4             
iter:   5  23:49:14  -5.76  -3.04  -503.248119    4             
iter:   6  23:49:35  -5.75  -2.60  -503.245625    3             
iter:   7  23:49:54  -6.20  -3.09  -503.245522    3             
iter:   8  23:50:13  -6.19  -3.02  -503.245782    3             
iter:   9  23:50:33  -6.54  -3.52  -503.246360    3             
iter:  10  23:50:52  -7.20  -3.51  -503.246293    2             
iter:  11  23:51:11  -7.38  -3.56  -503.245903    3             
iter:  12  23:51:31  -7.57  -3.92  -503.245983    3             
iter:  13  23:51:50  -7.60  -4.04  -503.245923    3             
