
  ___ ___ ___ _ _ _  
 |   |   |_  | | | | 
 | | | | | . | | | | 
 |__ |  _|___|_____|  20.1.0
 |___|_|             

User:   jywang@lbnode02
Date:   Sun Jul 25 22:22:33 2021
Arch:   x86_64
Pid:    39864
Python: 3.7.7
gpaw:   /home/jywang/intel/intelpython3/lib/python3.7/site-packages/gpaw
_gpaw:  /home/jywang/intel/intelpython3/lib/python3.7/site-packages/
        _gpaw.cpython-37m-x86_64-linux-gnu.so
ase:    /home/jywang/intel/intelpython3/lib/python3.7/site-packages/ase (version 3.19.0)
numpy:  /home/jywang/intel/intelpython3/lib/python3.7/site-packages/numpy (version 1.17.5)
scipy:  /home/jywang/intel/intelpython3/lib/python3.7/site-packages/scipy (version 1.3.3)
libxc:  4.3.4
units:  Angstrom and eV
cores: 32
OMP_NUM_THREADS: 1

Input parameters:
  convergence: {eigenstates: 1e-08}
  kpts: [3 2 1]
  mode: {ecut: 450.00000000000006,
         gammacentered: False,
         name: pw}
  occupations: {name: fermi-dirac,
                width: 0.01}
  random: True
  xc: PBE

System changes: positions, numbers, cell, pbc, initial_charges, initial_magmoms 

Initialize ...

Li-setup:
  name: Lithium
  id: 830b4218f175192f93f959cfc0aad614
  Z: 3
  valence: 1
  core: 2
  charge: 0.0
  file: /home/jywang/gpaw_paws/gpaw-setups-0.9.20000/Li.PBE.gz
  compensation charges: gauss, rc=0.33, lmax=2
  cutoffs: 1.91(filt), 2.55(core),
  valence states:
                energy  radius
    2s(1.00)    -2.874   1.058
    2p(0.00)    -1.090   1.058
    *s          24.337   1.058

  Using partial waves for Li as LCAO basis

N-setup:
  name: Nitrogen
  id: f7500608b86eaa90eef8b1d9a670dc53
  Z: 7
  valence: 5
  core: 2
  charge: 0.0
  file: /home/jywang/gpaw_paws/gpaw-setups-0.9.20000/N.PBE.gz
  compensation charges: gauss, rc=0.18, lmax=2
  cutoffs: 1.11(filt), 0.96(core),
  valence states:
                energy  radius
    2s(2.00)   -18.583   0.603
    2p(3.00)    -7.089   0.529
    *s           8.629   0.603
    *p          20.123   0.529
    *d           0.000   0.577

  Using partial waves for N as LCAO basis

Reference energy: -75445.846558

Spin-paired calculation

Occupation numbers:
  Fermi-Dirac: width=0.0100 eV

Convergence criteria:
  Maximum total energy change: 0.0005 eV / electron
  Maximum integral of absolute density change: 0.0001 electrons
  Maximum integral of absolute eigenstate change: 1e-08 eV^2
  Maximum number of iterations: 333

Symmetries present (total): 1

  ( 1  0  0)
  ( 0  1  0)
  ( 0  0  1)

6 k-points: 3 x 2 x 1 Monkhorst-Pack grid
3 k-points in the irreducible part of the Brillouin zone
       k-points in crystal coordinates                weights
   0:     0.00000000    0.25000000    0.00000000          2/6
   1:     0.33333333   -0.25000000    0.00000000          2/6
   2:     0.33333333    0.25000000    0.00000000          2/6

Wave functions: Plane wave expansion
  Cutoff energy: 450.000 eV
  Number of coefficients (min, max): 59071, 59113
  Pulay-stress correction: 0.000000 eV/Ang^3 (de/decut=0.000000)
  Using FFTW library
  ScaLapack parameters: grid=1x1, blocksize=None
  Wavefunction extrapolation:
    Improved wavefunction reuse through dual PAW basis 

Eigensolver
   Davidson(niter=2, smin=None, normalize=True) 

Densities:
  Coarse grid: 54*54*147 grid
  Fine grid: 108*108*294 grid
  Total Charge: 0.000000 

Density mixing:
  Method: separate
  Backend: pulay
  Linear mixing parameter: 0.05
  Mixing with 5 old densities
  Damping of long wave oscillations: 50 

Hamiltonian:
  XC and Coulomb potentials evaluated on a 108*108*294 grid
  Using the PBE Exchange-Correlation functional
 

XC parameters: PBE with 2 nearest neighbor stencil

Memory estimate:
  Process memory now: 280.12 MiB
  Calculator: 677.64 MiB
    Density: 6.19 MiB
      Arrays: 2.68 MiB
      Localized functions: 2.45 MiB
      Mixer: 1.06 MiB
    Hamiltonian: 1.81 MiB
      Arrays: 1.75 MiB
      XC: 0.00 MiB
      Poisson: 0.00 MiB
      vbar: 0.06 MiB
    Wavefunctions: 669.64 MiB
      Arrays psit_nG: 481.66 MiB
      Eigensolver: 169.90 MiB
      Projections: 0.26 MiB
      Projectors: 0.72 MiB
      PW-descriptor: 17.09 MiB

Total number of cores used: 32
Domain decomposition: 2 x 2 x 8

Number of atoms: 145
Number of atomic orbitals: 580
Number of bands in calculation: 178
Number of valence electrons: 289
Bands to converge: occupied

... initialized

Initializing position-dependent things.

Density initialized from atomic densities
Creating initial wave functions:
  178 bands from LCAO basis set

                                                  
                                                  
                                                  
                                                  
                                                  
                                                  
            Li      Li     Lii                    
           Li Li   Li LiN  Li  Li                 
                  N       N       N               
             LiLiLi  Li LLi   LiLLi               
               Li   N   Li   N  Li   N            
            Li N  LiLi  N LiLi  N Li              
           Li Li   LLiLi   LiLiLi    Li           
                  N       N       N               
             LiLiLi  Li LLi   LiLLi               
               Li LiN   LiLi N  LiLi N            
            Li N    Li  N   Li  N                 
           Li Li   LLiLi   LiLiLi    Li           
             Li   N  Li   N   Li  N               
               LiLi     LLi     LLi               
            Li Li LiNi  LiLiLN  LiLi N            
               N        N       N                 
           Li Li   LLiLi   LiLiLi    Li           
             LiLi N  Li LiN   LiLiN               
                 Li N    Li  N   Li  N            
               Li Li    LiLi    LiLi              
                                                  
                    Li       Li      Li           
                                                  
                                                  
                                                  
                                                  

Positions:
   0 Li     3.519805    4.598526   24.275770    ( 0.0000,  0.0000,  0.0000)
   1 Li     1.717695    0.991763    8.714294    ( 0.0000,  0.0000,  0.0000)
   2 Li     5.153197    0.991763    8.714294    ( 0.0000,  0.0000,  0.0000)
   3 Li     8.588596    0.991763    8.714294    ( 0.0000,  0.0000,  0.0000)
   4 Li    -0.000071    3.967140    8.714294    ( 0.0000,  0.0000,  0.0000)
   5 Li     3.435431    3.967140    8.714294    ( 0.0000,  0.0000,  0.0000)
   6 Li     6.870830    3.967140    8.714294    ( 0.0000,  0.0000,  0.0000)
   7 Li    -1.717786    6.942428    8.714294    ( 0.0000,  0.0000,  0.0000)
   8 Li     1.717717    6.942428    8.714294    ( 0.0000,  0.0000,  0.0000)
   9 Li     5.153115    6.942428    8.714294    ( 0.0000,  0.0000,  0.0000)
  10 Li     0.000000    0.000000   10.653504    ( 0.0000,  0.0000,  0.0000)
  11 Li     3.435502    0.000000   10.653504    ( 0.0000,  0.0000,  0.0000)
  12 Li     6.870901    0.000000   10.653504    ( 0.0000,  0.0000,  0.0000)
  13 Li    -0.000010    1.983525   10.653504    ( 0.0000,  0.0000,  0.0000)
  14 Li     3.435389    1.983525   10.653504    ( 0.0000,  0.0000,  0.0000)
  15 Li     6.870891    1.983525   10.653504    ( 0.0000,  0.0000,  0.0000)
  16 Li    -1.717766    2.975377   10.653504    ( 0.0000,  0.0000,  0.0000)
  17 Li     1.717736    2.975377   10.653504    ( 0.0000,  0.0000,  0.0000)
  18 Li     5.153135    2.975377   10.653504    ( 0.0000,  0.0000,  0.0000)
  19 Li    -1.717776    4.958903   10.653504    ( 0.0000,  0.0000,  0.0000)
  20 Li     1.717623    4.958903   10.653504    ( 0.0000,  0.0000,  0.0000)
  21 Li     5.153125    4.958903   10.653504    ( 0.0000,  0.0000,  0.0000)
  22 Li    -3.435480    5.950666   10.653504    ( 0.0000,  0.0000,  0.0000)
  23 Li     0.000022    5.950666   10.653504    ( 0.0000,  0.0000,  0.0000)
  24 Li     3.435421    5.950666   10.653504    ( 0.0000,  0.0000,  0.0000)
  25 Li    -3.435490    7.934191   10.653504    ( 0.0000,  0.0000,  0.0000)
  26 Li    -0.000091    7.934191   10.653504    ( 0.0000,  0.0000,  0.0000)
  27 Li     3.435411    7.934191   10.653504    ( 0.0000,  0.0000,  0.0000)
  28 Li     1.717695    0.991763   12.627088    ( 0.0000,  0.0000,  0.0000)
  29 Li     5.153197    0.991763   12.627088    ( 0.0000,  0.0000,  0.0000)
  30 Li     8.588596    0.991763   12.627088    ( 0.0000,  0.0000,  0.0000)
  31 Li    -0.000071    3.967140   12.627088    ( 0.0000,  0.0000,  0.0000)
  32 Li     3.435431    3.967140   12.627088    ( 0.0000,  0.0000,  0.0000)
  33 Li     6.870830    3.967140   12.627088    ( 0.0000,  0.0000,  0.0000)
  34 Li    -1.717786    6.942428   12.627088    ( 0.0000,  0.0000,  0.0000)
  35 Li     1.717717    6.942428   12.627088    ( 0.0000,  0.0000,  0.0000)
  36 Li     5.153115    6.942428   12.627088    ( 0.0000,  0.0000,  0.0000)
  37 Li     0.000000    0.000000   14.576373    ( 0.0000,  0.0000,  0.0000)
  38 Li     3.435502    0.000000   14.576373    ( 0.0000,  0.0000,  0.0000)
  39 Li     6.870901    0.000000   14.576373    ( 0.0000,  0.0000,  0.0000)
  40 Li    -0.000010    1.983525   14.576373    ( 0.0000,  0.0000,  0.0000)
  41 Li     3.435389    1.983525   14.576373    ( 0.0000,  0.0000,  0.0000)
  42 Li     6.870891    1.983525   14.576373    ( 0.0000,  0.0000,  0.0000)
  43 Li    -1.717766    2.975377   14.576373    ( 0.0000,  0.0000,  0.0000)
  44 Li     1.717736    2.975377   14.576373    ( 0.0000,  0.0000,  0.0000)
  45 Li     5.153135    2.975377   14.576373    ( 0.0000,  0.0000,  0.0000)
  46 Li    -1.717776    4.958903   14.576373    ( 0.0000,  0.0000,  0.0000)
  47 Li     1.717623    4.958903   14.576373    ( 0.0000,  0.0000,  0.0000)
  48 Li     5.153125    4.958903   14.576373    ( 0.0000,  0.0000,  0.0000)
  49 Li    -3.435480    5.950666   14.576373    ( 0.0000,  0.0000,  0.0000)
  50 Li     0.000022    5.950666   14.576373    ( 0.0000,  0.0000,  0.0000)
  51 Li     3.435421    5.950666   14.576373    ( 0.0000,  0.0000,  0.0000)
  52 Li    -3.435490    7.934191   14.576373    ( 0.0000,  0.0000,  0.0000)
  53 Li    -0.000091    7.934191   14.576373    ( 0.0000,  0.0000,  0.0000)
  54 Li     3.435411    7.934191   14.576373    ( 0.0000,  0.0000,  0.0000)
  55 Li     1.717695    0.991763   16.541957    ( 0.0000,  0.0000,  0.0000)
  56 Li     5.153197    0.991763   16.541957    ( 0.0000,  0.0000,  0.0000)
  57 Li     8.588596    0.991763   16.541957    ( 0.0000,  0.0000,  0.0000)
  58 Li    -0.000071    3.967140   16.541957    ( 0.0000,  0.0000,  0.0000)
  59 Li     3.435431    3.967140   16.541957    ( 0.0000,  0.0000,  0.0000)
  60 Li     6.870830    3.967140   16.541957    ( 0.0000,  0.0000,  0.0000)
  61 Li    -1.717786    6.942428   16.541957    ( 0.0000,  0.0000,  0.0000)
  62 Li     1.717717    6.942428   16.541957    ( 0.0000,  0.0000,  0.0000)
  63 Li     5.153115    6.942428   16.541957    ( 0.0000,  0.0000,  0.0000)
  64 Li     0.000000    0.000000   18.498057    ( 0.0000,  0.0000,  0.0000)
  65 Li     3.435399    0.000000   18.498057    ( 0.0000,  0.0000,  0.0000)
  66 Li     6.870901    0.000000   18.498057    ( 0.0000,  0.0000,  0.0000)
  67 Li    -0.000010    1.983525   18.498057    ( 0.0000,  0.0000,  0.0000)
  68 Li     3.435389    1.983525   18.498057    ( 0.0000,  0.0000,  0.0000)
  69 Li     6.870891    1.983525   18.498057    ( 0.0000,  0.0000,  0.0000)
  70 Li    -1.717766    2.975377   18.498057    ( 0.0000,  0.0000,  0.0000)
  71 Li     1.717633    2.975377   18.498057    ( 0.0000,  0.0000,  0.0000)
  72 Li     5.153135    2.975377   18.498057    ( 0.0000,  0.0000,  0.0000)
  73 Li    -1.717776    4.958903   18.498057    ( 0.0000,  0.0000,  0.0000)
  74 Li     1.717623    4.958903   18.498057    ( 0.0000,  0.0000,  0.0000)
  75 Li     5.153125    4.958903   18.498057    ( 0.0000,  0.0000,  0.0000)
  76 Li    -3.435480    5.950666   18.498057    ( 0.0000,  0.0000,  0.0000)
  77 Li    -0.000081    5.950666   18.498057    ( 0.0000,  0.0000,  0.0000)
  78 Li     3.435421    5.950666   18.498057    ( 0.0000,  0.0000,  0.0000)
  79 Li    -3.435490    7.934191   18.498057    ( 0.0000,  0.0000,  0.0000)
  80 Li    -0.000091    7.934191   18.498057    ( 0.0000,  0.0000,  0.0000)
  81 Li     3.435411    7.934191   18.498057    ( 0.0000,  0.0000,  0.0000)
  82 Li     1.717695    0.991763   20.457418    ( 0.0000,  0.0000,  0.0000)
  83 Li     5.153197    0.991763   20.457418    ( 0.0000,  0.0000,  0.0000)
  84 Li     8.588596    0.991763   20.457418    ( 0.0000,  0.0000,  0.0000)
  85 Li    -0.000071    3.967140   20.457418    ( 0.0000,  0.0000,  0.0000)
  86 Li     3.435431    3.967140   20.457418    ( 0.0000,  0.0000,  0.0000)
  87 Li     6.870830    3.967140   20.457418    ( 0.0000,  0.0000,  0.0000)
  88 Li    -1.717786    6.942428   20.457418    ( 0.0000,  0.0000,  0.0000)
  89 Li     1.717717    6.942428   20.457418    ( 0.0000,  0.0000,  0.0000)
  90 Li     5.153115    6.942428   20.457418    ( 0.0000,  0.0000,  0.0000)
  91 Li     0.000000    0.000000   22.595468    ( 0.0000,  0.0000,  0.0000)
  92 Li     3.435502    0.000000   22.595468    ( 0.0000,  0.0000,  0.0000)
  93 Li     6.870901    0.000000   22.595468    ( 0.0000,  0.0000,  0.0000)
  94 Li    -0.000010    1.983525   22.595468    ( 0.0000,  0.0000,  0.0000)
  95 Li     3.435389    1.983525   22.595468    ( 0.0000,  0.0000,  0.0000)
  96 Li     6.870891    1.983525   22.595468    ( 0.0000,  0.0000,  0.0000)
  97 Li    -1.717766    2.975377   22.595468    ( 0.0000,  0.0000,  0.0000)
  98 Li     1.717736    2.975377   22.595468    ( 0.0000,  0.0000,  0.0000)
  99 Li     5.153135    2.975377   22.595468    ( 0.0000,  0.0000,  0.0000)
 100 Li    -1.717776    4.958903   22.595468    ( 0.0000,  0.0000,  0.0000)
 101 Li     1.717623    4.958903   22.595468    ( 0.0000,  0.0000,  0.0000)
 102 Li     5.153125    4.958903   22.595468    ( 0.0000,  0.0000,  0.0000)
 103 Li    -3.435480    5.950666   22.595468    ( 0.0000,  0.0000,  0.0000)
 104 Li     0.000022    5.950666   22.595468    ( 0.0000,  0.0000,  0.0000)
 105 Li     3.435421    5.950666   22.595468    ( 0.0000,  0.0000,  0.0000)
 106 Li    -3.435490    7.934191   22.595468    ( 0.0000,  0.0000,  0.0000)
 107 Li    -0.000091    7.934191   22.595468    ( 0.0000,  0.0000,  0.0000)
 108 Li     3.435411    7.934191   22.595468    ( 0.0000,  0.0000,  0.0000)
 109 N      1.717695    0.991763   10.638094    ( 0.0000,  0.0000,  0.0000)
 110 N      5.153197    0.991763   10.638094    ( 0.0000,  0.0000,  0.0000)
 111 N      8.588596    0.991763   10.638094    ( 0.0000,  0.0000,  0.0000)
 112 N     -0.000071    3.967140   10.638094    ( 0.0000,  0.0000,  0.0000)
 113 N      3.435431    3.967140   10.638094    ( 0.0000,  0.0000,  0.0000)
 114 N      6.870830    3.967140   10.638094    ( 0.0000,  0.0000,  0.0000)
 115 N     -1.717786    6.942428   10.638094    ( 0.0000,  0.0000,  0.0000)
 116 N      1.717717    6.942428   10.638094    ( 0.0000,  0.0000,  0.0000)
 117 N      5.153115    6.942428   10.638094    ( 0.0000,  0.0000,  0.0000)
 118 N      1.717695    0.991763   14.562149    ( 0.0000,  0.0000,  0.0000)
 119 N      5.153197    0.991763   14.562149    ( 0.0000,  0.0000,  0.0000)
 120 N      8.588596    0.991763   14.562149    ( 0.0000,  0.0000,  0.0000)
 121 N     -0.000071    3.967140   14.562149    ( 0.0000,  0.0000,  0.0000)
 122 N      3.435431    3.967140   14.562149    ( 0.0000,  0.0000,  0.0000)
 123 N      6.870830    3.967140   14.562149    ( 0.0000,  0.0000,  0.0000)
 124 N     -1.717786    6.942428   14.562149    ( 0.0000,  0.0000,  0.0000)
 125 N      1.717717    6.942428   14.562149    ( 0.0000,  0.0000,  0.0000)
 126 N      5.153115    6.942428   14.562149    ( 0.0000,  0.0000,  0.0000)
 127 N      1.717695    0.991763   18.477610    ( 0.0000,  0.0000,  0.0000)
 128 N      5.153197    0.991763   18.477610    ( 0.0000,  0.0000,  0.0000)
 129 N      8.588596    0.991763   18.477610    ( 0.0000,  0.0000,  0.0000)
 130 N     -0.000071    3.967140   18.477610    ( 0.0000,  0.0000,  0.0000)
 131 N      3.435431    3.967140   18.477610    ( 0.0000,  0.0000,  0.0000)
 132 N      6.870830    3.967140   18.477610    ( 0.0000,  0.0000,  0.0000)
 133 N     -1.717786    6.942428   18.477610    ( 0.0000,  0.0000,  0.0000)
 134 N      1.717717    6.942428   18.477610    ( 0.0000,  0.0000,  0.0000)
 135 N      5.153115    6.942428   18.477610    ( 0.0000,  0.0000,  0.0000)
 136 N      1.717695    0.991763   22.371735    ( 0.0000,  0.0000,  0.0000)
 137 N      5.153197    0.991763   22.371735    ( 0.0000,  0.0000,  0.0000)
 138 N      8.588596    0.991763   22.371735    ( 0.0000,  0.0000,  0.0000)
 139 N     -0.000071    3.967140   22.371735    ( 0.0000,  0.0000,  0.0000)
 140 N      3.435431    3.967140   22.371735    ( 0.0000,  0.0000,  0.0000)
 141 N      6.870830    3.967140   22.371735    ( 0.0000,  0.0000,  0.0000)
 142 N     -1.717786    6.942428   22.371735    ( 0.0000,  0.0000,  0.0000)
 143 N      1.717717    6.942428   22.371735    ( 0.0000,  0.0000,  0.0000)
 144 N      5.153115    6.942428   22.371735    ( 0.0000,  0.0000,  0.0000)

Unit cell:
           periodic     x           y           z      points  spacing
  1. axis:    yes   10.306300    0.000000    0.000000    54     0.1653
  2. axis:    yes   -5.153194    8.925954    0.000000    54     0.1653
  3. axis:    yes    0.000000    0.000000   29.633400   147     0.2016

  Lengths:  10.306300  10.306700  29.633400
  Angles:   90.000000  90.000000 119.999001

Effective grid spacing dv^(1/3) = 0.1853

                     log10-error:    total        iterations:
           time      wfs    density  energy       fermi  poisson
iter:   1  22:23:24                -594.956285    2             
iter:   2  22:23:33  -0.96  -0.51  -566.298335    4             
iter:   3  22:23:43  -1.25  -0.60  -551.632235    36            
iter:   4  22:23:53  -0.66  -0.62  -517.777196    32            
iter:   5  22:24:07  -0.53  -0.82  -679.126523    38            
iter:   6  22:24:19  -1.04  -0.49  -614.143660    37            
iter:   7  22:24:32  -0.79  -0.51  -519.397530    35            
iter:   8  22:24:46  -1.02  -0.89  -535.561900    6             
iter:   9  22:24:59  -1.47  -0.98  -524.972430    3             
iter:  10  22:25:11  -2.11  -1.07  -519.239372    33            
iter:  11  22:25:22  -2.49  -1.12  -511.497404    34            
iter:  12  22:25:34  -1.41  -1.19  -514.741417    7             
iter:  13  22:25:47  -2.24  -1.02  -505.473576    34            
iter:  14  22:25:59  -3.27  -1.34  -503.315856    6             
iter:  15  22:26:11  -3.74  -1.43  -503.335256    4             
iter:  16  22:26:24  -2.80  -1.44  -503.291327    37            
iter:  17  22:26:36  -3.75  -1.44  -503.529486    6             
iter:  18  22:26:49  -3.77  -1.41  -503.732022    4             
iter:  19  22:27:01  -3.50  -1.41  -502.879548    35            
iter:  20  22:27:14  -4.23  -1.54  -502.894800    3             
iter:  21  22:27:26  -3.66  -1.53  -502.718639    7             
iter:  22  22:27:38  -3.25  -1.55  -502.553019    4             
iter:  23  22:27:51  -4.44  -1.61  -502.507690    3             
iter:  24  22:28:04  -4.16  -1.65  -502.514644    4             
iter:  25  22:28:17  -3.74  -1.66  -502.482055    5             
iter:  26  22:28:30  -3.28  -1.72  -502.447288    35            
iter:  27  22:28:42  -3.67  -1.91  -502.465187    4             
iter:  28  22:28:54  -4.53  -2.00  -502.462554    4             
iter:  29  22:29:06  -3.66  -2.08  -502.466623    4             
iter:  30  22:29:19  -4.72  -2.40  -502.468754    4             
iter:  31  22:29:31  -4.87  -2.54  -502.463918    3             
iter:  32  22:29:44  -5.07  -2.60  -502.463121    3             
iter:  33  22:29:56  -5.32  -2.80  -502.463650    3             
iter:  34  22:30:08  -5.65  -2.84  -502.464049    3             
iter:  35  22:30:21  -5.85  -2.96  -502.463227    3             
iter:  36  22:30:33  -6.20  -2.85  -502.463981    3             
iter:  37  22:30:46  -5.59  -3.00  -502.464415    3             
iter:  38  22:30:58  -6.02  -3.13  -502.464035    3             
iter:  39  22:31:11  -7.08  -3.34  -502.463843    3             
iter:  40  22:31:24  -6.08  -3.40  -502.463728    3             
iter:  41  22:31:36  -6.81  -3.50  -502.463835    2             
iter:  42  22:31:48  -7.43  -3.72  -502.463880    2             
iter:  43  22:32:00  -7.41  -3.89  -502.463893    2             
iter:  44  22:32:13  -7.66  -3.98  -502.463983    2             
iter:  45  22:32:25  -7.46  -3.97  -502.463994    3             
iter:  46  22:32:38  -7.75  -4.05  -502.463976    2             
iter:  47  22:32:51  -8.36  -4.26  -502.463967    2             

Converged after 47 iterations.

Dipole moment: (-3.901967, 2.436137, -0.188542) |e|*Ang

Energy contributions relative to reference atoms: (reference = -75445.846558)

Kinetic:       +601.161327
Potential:     -407.451969
External:        +0.000000
XC:            -692.801969
Entropy (-ST):   -0.012740
Local:           -3.364986
--------------------------
Free energy:   -502.470338
Extrapolated:  -502.463967

Fermi level: -0.49438

Showing only first 2 kpts
 Kpt  Band  Eigenvalues  Occupancy
  0   142     -0.49548    0.35163
  0   143     -0.47472    0.08185
  0   144     -0.40129    0.00006
  0   145     -0.32115    0.00000

  1   142     -0.54527    0.66258
  1   143     -0.51658    0.60137
  1   144     -0.46169    0.02443
  1   145     -0.36439    0.00000


No gap

Forces in eV/Ang:
  0 Li   -0.09270   -0.71783    0.45111
  1 Li    0.00004    0.00004   -0.01756
  2 Li   -0.00002    0.00008   -0.01756
  3 Li   -0.00002    0.00003   -0.01755
  4 Li    0.00004   -0.00003   -0.01756
  5 Li   -0.00002    0.00001   -0.01767
  6 Li   -0.00003   -0.00002   -0.01758
  7 Li    0.00004   -0.00004   -0.01755
  8 Li   -0.00001   -0.00002   -0.01759
  9 Li   -0.00003   -0.00005   -0.01761
 10 Li   -0.00617    0.00241   -0.00663
 11 Li   -0.00691    0.00246   -0.00661
 12 Li   -0.00637    0.00223   -0.00664
 13 Li    0.00610   -0.00185   -0.00661
 14 Li    0.00663   -0.00221   -0.00672
 15 Li    0.00588   -0.00203   -0.00663
 16 Li   -0.00586    0.00198   -0.00664
 17 Li   -0.00670    0.00209   -0.00672
 18 Li   -0.00605    0.00180   -0.00673
 19 Li    0.00640   -0.00216   -0.00664
 20 Li    0.00684   -0.00246   -0.00674
 21 Li    0.00621   -0.00235   -0.00674
 22 Li   -0.00609    0.00237   -0.00665
 23 Li   -0.00694    0.00248   -0.00665
 24 Li   -0.00640    0.00225   -0.00676
 25 Li    0.00645   -0.00220   -0.00663
 26 Li    0.00686   -0.00249   -0.00665
 27 Li    0.00613   -0.00233   -0.00665
 28 Li   -0.00004   -0.00012   -0.00088
 29 Li    0.00005   -0.00007   -0.00089
 30 Li    0.00001    0.00009   -0.00076
 31 Li   -0.00018   -0.00011   -0.00090
 32 Li   -0.00004   -0.00006   -0.00123
 33 Li    0.00019   -0.00007   -0.00091
 34 Li    0.00003   -0.00002   -0.00076
 35 Li   -0.00014    0.00019   -0.00099
 36 Li    0.00011    0.00017   -0.00099
 37 Li    0.00019    0.00085    0.01534
 38 Li   -0.00022    0.00020    0.01572
 39 Li    0.00068    0.00065    0.01534
 40 Li   -0.00081   -0.00002    0.01567
 41 Li   -0.00008   -0.00133    0.01478
 42 Li   -0.00060   -0.00023    0.01564
 43 Li    0.00087   -0.00046    0.01539
 44 Li   -0.00095   -0.00051    0.01475
 45 Li    0.00156   -0.00080    0.01473
 46 Li   -0.00026    0.00030    0.01546
 47 Li   -0.00079   -0.00010    0.01460
 48 Li    0.00040   -0.00000    0.01455
 49 Li    0.00106    0.00041    0.01546
 50 Li   -0.00067    0.00049    0.01550
 51 Li    0.00028    0.00111    0.01446
 52 Li    0.00030   -0.00021    0.01531
 53 Li   -0.00037   -0.00053    0.01529
 54 Li   -0.00060    0.00021    0.01540
 55 Li   -0.00063   -0.00107   -0.00097
 56 Li    0.00056   -0.00105   -0.00108
 57 Li    0.00003    0.00035   -0.00055
 58 Li   -0.00168   -0.00030   -0.00096
 59 Li   -0.00016   -0.00083   -0.00389
 60 Li    0.00175   -0.00030   -0.00100
 61 Li    0.00004   -0.00001   -0.00059
 62 Li   -0.00120    0.00154   -0.00143
 63 Li    0.00116    0.00166   -0.00141
 64 Li   -0.00167    0.00640   -0.01646
 65 Li    0.00175   -0.00054   -0.01204
 66 Li    0.00509    0.00575   -0.01585
 67 Li   -0.00355   -0.00238   -0.01282
 68 Li   -0.00134   -0.01397   -0.02812
 69 Li   -0.00022   -0.00268   -0.01335
 70 Li    0.00249   -0.00367   -0.01451
 71 Li   -0.00886   -0.00568   -0.02800
 72 Li    0.01227   -0.00593   -0.02784
 73 Li   -0.00141    0.00362   -0.01407
 74 Li   -0.01119    0.00362   -0.02804
 75 Li    0.00830    0.00333   -0.02801
 76 Li    0.00573    0.00106   -0.01618
 77 Li   -0.00193    0.00093   -0.01544
 78 Li    0.00114    0.01086   -0.02806
 79 Li    0.00439   -0.00107   -0.01684
 80 Li   -0.00697   -0.00125   -0.01629
 81 Li   -0.00192    0.00310   -0.01683
 82 Li   -0.01388   -0.02052    0.03516
 83 Li    0.01409   -0.02100    0.03502
 84 Li   -0.00061    0.00275    0.02573
 85 Li   -0.02707    0.00039    0.03932
 86 Li   -0.00097   -0.00909    0.06593
 87 Li    0.02625    0.00085    0.04187
 88 Li    0.00188   -0.00295    0.02524
 89 Li   -0.01161    0.02146    0.05053
 90 Li    0.01088    0.02000    0.05347
 91 Li   -0.00161    0.01485   -0.02099
 92 Li   -0.01882   -0.02013   -0.02318
 93 Li   -0.02661    0.01847   -0.02289
 94 Li   -0.01172   -0.01599   -0.02940
 95 Li    0.00622   -0.13152   -0.15837
 96 Li    0.04440   -0.01574   -0.03167
 97 Li   -0.01786    0.00716   -0.00491
 98 Li   -0.14282   -0.10965   -0.22655
 99 Li    0.14222   -0.14129   -0.27708
100 Li    0.02182   -0.01919   -0.03319
101 Li   -0.42717    0.08808   -0.62886
102 Li    0.55943    0.12032   -0.82731
103 Li    0.01093    0.01892   -0.04323
104 Li   -0.04340    0.01613   -0.04286
105 Li   -0.05957    0.79055   -1.31696
106 Li    0.02123    0.01336   -0.00975
107 Li    0.00788    0.00497   -0.00697
108 Li    0.01655    0.02683   -0.05457
109 N     0.00037    0.00034    0.05996
110 N    -0.00047    0.00046    0.06003
111 N    -0.00003    0.00030    0.06029
112 N     0.00054   -0.00034    0.05996
113 N    -0.00036   -0.00044    0.05732
114 N    -0.00008   -0.00029    0.05997
115 N     0.00037   -0.00003    0.06024
116 N    -0.00026   -0.00007    0.06000
117 N    -0.00008   -0.00007    0.05997
118 N     0.00071    0.00099   -0.02885
119 N    -0.00074    0.00106   -0.02870
120 N    -0.00009    0.00008   -0.03005
121 N     0.00143   -0.00018   -0.02860
122 N    -0.00026    0.00028   -0.02734
123 N    -0.00098   -0.00016   -0.02844
124 N     0.00035   -0.00013   -0.02996
125 N     0.00024   -0.00080   -0.02751
126 N    -0.00064   -0.00091   -0.02747
127 N     0.00556    0.00924   -0.01720
128 N    -0.00601    0.00945   -0.01775
129 N    -0.00018   -0.00185   -0.03352
130 N     0.01218    0.00095   -0.01541
131 N    -0.00051    0.00090    0.05266
132 N    -0.01198    0.00056   -0.01393
133 N    -0.00047   -0.00019   -0.03256
134 N     0.00580   -0.00964   -0.00628
135 N    -0.00614   -0.00944   -0.00434
136 N     0.03880    0.05382    0.14977
137 N    -0.03870    0.06152    0.15575
138 N    -0.00372    0.00259    0.10017
139 N     0.11573    0.00621    0.21592
140 N     0.06410    0.47663    1.84218
141 N    -0.14746    0.00657    0.25226
142 N     0.00369    0.00042    0.10086
143 N     0.17623   -0.25407    0.41678
144 N    -0.19618   -0.29621    0.46886

System changes: positions 

Initializing position-dependent things.

Density initialized from wave functions
                                                  
                                                  
                                                  
                                                  
                                                  
                                                  
            Li      Li     Lii                    
           Li Li   Li LiN  Li  Li                 
                  N       N       N               
             LiLiLi  Li LLi   LiLLi               
               Li   N   Li   N  Li   N            
            Li N  LiLi  N LiLi  N Li              
           Li Li   LLiLi   LiLiLi    Li           
                  N       N       N               
             LiLiLi  Li LLi   LiLLi               
               Li LiN   LiLi N  LiLi N            
            Li N    Li  N   Li  N                 
           Li Li   LLiLi   LiLiLi    Li           
             Li   N  Li   N   Li  N               
               LiLi     LLi     LLi               
            Li Li LiNi  LiLiLN  LiLi N            
               N        N       N                 
           Li Li   LLiLi   LiLiLi    Li           
             LiLi N  Li LiN   LiLiN               
                 Li N    Li  N   Li  N            
               Li Li    LiLi    LiLi              
                                                  
                    Li       Li      Li           
                                                  
                                                  
                                                  
                                                  

Positions:
   0 Li     3.518481    4.588272   24.282215    ( 0.0000,  0.0000,  0.0000)
   1 Li     1.717695    0.991763    8.714294    ( 0.0000,  0.0000,  0.0000)
   2 Li     5.153197    0.991763    8.714294    ( 0.0000,  0.0000,  0.0000)
   3 Li     8.588596    0.991763    8.714294    ( 0.0000,  0.0000,  0.0000)
   4 Li    -0.000071    3.967140    8.714294    ( 0.0000,  0.0000,  0.0000)
   5 Li     3.435431    3.967140    8.714294    ( 0.0000,  0.0000,  0.0000)
   6 Li     6.870830    3.967140    8.714294    ( 0.0000,  0.0000,  0.0000)
   7 Li    -1.717786    6.942428    8.714294    ( 0.0000,  0.0000,  0.0000)
   8 Li     1.717717    6.942428    8.714294    ( 0.0000,  0.0000,  0.0000)
   9 Li     5.153115    6.942428    8.714294    ( 0.0000,  0.0000,  0.0000)
  10 Li     0.000000    0.000000   10.653504    ( 0.0000,  0.0000,  0.0000)
  11 Li     3.435502    0.000000   10.653504    ( 0.0000,  0.0000,  0.0000)
  12 Li     6.870901    0.000000   10.653504    ( 0.0000,  0.0000,  0.0000)
  13 Li    -0.000010    1.983525   10.653504    ( 0.0000,  0.0000,  0.0000)
  14 Li     3.435389    1.983525   10.653504    ( 0.0000,  0.0000,  0.0000)
  15 Li     6.870891    1.983525   10.653504    ( 0.0000,  0.0000,  0.0000)
  16 Li    -1.717766    2.975377   10.653504    ( 0.0000,  0.0000,  0.0000)
  17 Li     1.717736    2.975377   10.653504    ( 0.0000,  0.0000,  0.0000)
  18 Li     5.153135    2.975377   10.653504    ( 0.0000,  0.0000,  0.0000)
  19 Li    -1.717776    4.958903   10.653504    ( 0.0000,  0.0000,  0.0000)
  20 Li     1.717623    4.958903   10.653504    ( 0.0000,  0.0000,  0.0000)
  21 Li     5.153125    4.958903   10.653504    ( 0.0000,  0.0000,  0.0000)
  22 Li    -3.435480    5.950666   10.653504    ( 0.0000,  0.0000,  0.0000)
  23 Li     0.000022    5.950666   10.653504    ( 0.0000,  0.0000,  0.0000)
  24 Li     3.435421    5.950666   10.653504    ( 0.0000,  0.0000,  0.0000)
  25 Li    -3.435490    7.934191   10.653504    ( 0.0000,  0.0000,  0.0000)
  26 Li    -0.000091    7.934191   10.653504    ( 0.0000,  0.0000,  0.0000)
  27 Li     3.435411    7.934191   10.653504    ( 0.0000,  0.0000,  0.0000)
  28 Li     1.717695    0.991763   12.627088    ( 0.0000,  0.0000,  0.0000)
  29 Li     5.153197    0.991763   12.627088    ( 0.0000,  0.0000,  0.0000)
  30 Li     8.588596    0.991763   12.627088    ( 0.0000,  0.0000,  0.0000)
  31 Li    -0.000071    3.967140   12.627088    ( 0.0000,  0.0000,  0.0000)
  32 Li     3.435431    3.967140   12.627088    ( 0.0000,  0.0000,  0.0000)
  33 Li     6.870830    3.967140   12.627088    ( 0.0000,  0.0000,  0.0000)
  34 Li    -1.717786    6.942428   12.627088    ( 0.0000,  0.0000,  0.0000)
  35 Li     1.717717    6.942428   12.627088    ( 0.0000,  0.0000,  0.0000)
  36 Li     5.153115    6.942428   12.627088    ( 0.0000,  0.0000,  0.0000)
  37 Li     0.000000    0.000000   14.576373    ( 0.0000,  0.0000,  0.0000)
  38 Li     3.435502    0.000000   14.576373    ( 0.0000,  0.0000,  0.0000)
  39 Li     6.870901    0.000000   14.576373    ( 0.0000,  0.0000,  0.0000)
  40 Li    -0.000010    1.983525   14.576373    ( 0.0000,  0.0000,  0.0000)
  41 Li     3.435389    1.983525   14.576373    ( 0.0000,  0.0000,  0.0000)
  42 Li     6.870891    1.983525   14.576373    ( 0.0000,  0.0000,  0.0000)
  43 Li    -1.717766    2.975377   14.576373    ( 0.0000,  0.0000,  0.0000)
  44 Li     1.717736    2.975377   14.576373    ( 0.0000,  0.0000,  0.0000)
  45 Li     5.153135    2.975377   14.576373    ( 0.0000,  0.0000,  0.0000)
  46 Li    -1.717776    4.958903   14.576373    ( 0.0000,  0.0000,  0.0000)
  47 Li     1.717623    4.958903   14.576373    ( 0.0000,  0.0000,  0.0000)
  48 Li     5.153125    4.958903   14.576373    ( 0.0000,  0.0000,  0.0000)
  49 Li    -3.435480    5.950666   14.576373    ( 0.0000,  0.0000,  0.0000)
  50 Li     0.000022    5.950666   14.576373    ( 0.0000,  0.0000,  0.0000)
  51 Li     3.435421    5.950666   14.576373    ( 0.0000,  0.0000,  0.0000)
  52 Li    -3.435490    7.934191   14.576373    ( 0.0000,  0.0000,  0.0000)
  53 Li    -0.000091    7.934191   14.576373    ( 0.0000,  0.0000,  0.0000)
  54 Li     3.435411    7.934191   14.576373    ( 0.0000,  0.0000,  0.0000)
  55 Li     1.717686    0.991747   16.541943    ( 0.0000,  0.0000,  0.0000)
  56 Li     5.153205    0.991748   16.541941    ( 0.0000,  0.0000,  0.0000)
  57 Li     8.588596    0.991768   16.541949    ( 0.0000,  0.0000,  0.0000)
  58 Li    -0.000095    3.967136   16.541943    ( 0.0000,  0.0000,  0.0000)
  59 Li     3.435429    3.967128   16.541901    ( 0.0000,  0.0000,  0.0000)
  60 Li     6.870855    3.967136   16.541942    ( 0.0000,  0.0000,  0.0000)
  61 Li    -1.717785    6.942428   16.541948    ( 0.0000,  0.0000,  0.0000)
  62 Li     1.717699    6.942450   16.541936    ( 0.0000,  0.0000,  0.0000)
  63 Li     5.153132    6.942452   16.541936    ( 0.0000,  0.0000,  0.0000)
  64 Li    -0.000024    0.000091   18.497822    ( 0.0000,  0.0000,  0.0000)
  65 Li     3.435424   -0.000008   18.497885    ( 0.0000,  0.0000,  0.0000)
  66 Li     6.870974    0.000082   18.497831    ( 0.0000,  0.0000,  0.0000)
  67 Li    -0.000061    1.983492   18.497874    ( 0.0000,  0.0000,  0.0000)
  68 Li     3.435370    1.983326   18.497656    ( 0.0000,  0.0000,  0.0000)
  69 Li     6.870888    1.983487   18.497867    ( 0.0000,  0.0000,  0.0000)
  70 Li    -1.717730    2.975325   18.497850    ( 0.0000,  0.0000,  0.0000)
  71 Li     1.717507    2.975296   18.497657    ( 0.0000,  0.0000,  0.0000)
  72 Li     5.153311    2.975293   18.497660    ( 0.0000,  0.0000,  0.0000)
  73 Li    -1.717796    4.958955   18.497856    ( 0.0000,  0.0000,  0.0000)
  74 Li     1.717463    4.958955   18.497657    ( 0.0000,  0.0000,  0.0000)
  75 Li     5.153244    4.958951   18.497657    ( 0.0000,  0.0000,  0.0000)
  76 Li    -3.435398    5.950681   18.497826    ( 0.0000,  0.0000,  0.0000)
  77 Li    -0.000109    5.950679   18.497837    ( 0.0000,  0.0000,  0.0000)
  78 Li     3.435437    5.950821   18.497656    ( 0.0000,  0.0000,  0.0000)
  79 Li    -3.435427    7.934176   18.497817    ( 0.0000,  0.0000,  0.0000)
  80 Li    -0.000191    7.934173   18.497825    ( 0.0000,  0.0000,  0.0000)
  81 Li     3.435384    7.934235   18.497817    ( 0.0000,  0.0000,  0.0000)
  82 Li     1.717496    0.991470   20.457920    ( 0.0000,  0.0000,  0.0000)
  83 Li     5.153398    0.991463   20.457918    ( 0.0000,  0.0000,  0.0000)
  84 Li     8.588587    0.991802   20.457785    ( 0.0000,  0.0000,  0.0000)
  85 Li    -0.000458    3.967146   20.457979    ( 0.0000,  0.0000,  0.0000)
  86 Li     3.435417    3.967010   20.458360    ( 0.0000,  0.0000,  0.0000)
  87 Li     6.871205    3.967152   20.458016    ( 0.0000,  0.0000,  0.0000)
  88 Li    -1.717759    6.942386   20.457778    ( 0.0000,  0.0000,  0.0000)
  89 Li     1.717551    6.942735   20.458140    ( 0.0000,  0.0000,  0.0000)
  90 Li     5.153271    6.942714   20.458182    ( 0.0000,  0.0000,  0.0000)
  91 Li    -0.000023    0.000212   22.595168    ( 0.0000,  0.0000,  0.0000)
  92 Li     3.435233   -0.000288   22.595136    ( 0.0000,  0.0000,  0.0000)
  93 Li     6.870521    0.000264   22.595141    ( 0.0000,  0.0000,  0.0000)
  94 Li    -0.000177    1.983297   22.595048    ( 0.0000,  0.0000,  0.0000)
  95 Li     3.435478    1.981647   22.593205    ( 0.0000,  0.0000,  0.0000)
  96 Li     6.871525    1.983301   22.595015    ( 0.0000,  0.0000,  0.0000)
  97 Li    -1.718021    2.975480   22.595397    ( 0.0000,  0.0000,  0.0000)
  98 Li     1.715696    2.973811   22.592231    ( 0.0000,  0.0000,  0.0000)
  99 Li     5.155167    2.973359   22.591509    ( 0.0000,  0.0000,  0.0000)
 100 Li    -1.717464    4.958629   22.594993    ( 0.0000,  0.0000,  0.0000)
 101 Li     1.711521    4.960161   22.586484    ( 0.0000,  0.0000,  0.0000)
 102 Li     5.161117    4.960622   22.583649    ( 0.0000,  0.0000,  0.0000)
 103 Li    -3.435324    5.950936   22.594850    ( 0.0000,  0.0000,  0.0000)
 104 Li    -0.000598    5.950896   22.594855    ( 0.0000,  0.0000,  0.0000)
 105 Li     3.434570    5.961959   22.576654    ( 0.0000,  0.0000,  0.0000)
 106 Li    -3.435187    7.934382   22.595328    ( 0.0000,  0.0000,  0.0000)
 107 Li     0.000022    7.934262   22.595368    ( 0.0000,  0.0000,  0.0000)
 108 Li     3.435648    7.934575   22.594688    ( 0.0000,  0.0000,  0.0000)
 109 N      1.717695    0.991763   10.638094    ( 0.0000,  0.0000,  0.0000)
 110 N      5.153197    0.991763   10.638094    ( 0.0000,  0.0000,  0.0000)
 111 N      8.588596    0.991763   10.638094    ( 0.0000,  0.0000,  0.0000)
 112 N     -0.000071    3.967140   10.638094    ( 0.0000,  0.0000,  0.0000)
 113 N      3.435431    3.967140   10.638094    ( 0.0000,  0.0000,  0.0000)
 114 N      6.870830    3.967140   10.638094    ( 0.0000,  0.0000,  0.0000)
 115 N     -1.717786    6.942428   10.638094    ( 0.0000,  0.0000,  0.0000)
 116 N      1.717717    6.942428   10.638094    ( 0.0000,  0.0000,  0.0000)
 117 N      5.153115    6.942428   10.638094    ( 0.0000,  0.0000,  0.0000)
 118 N      1.717695    0.991763   14.562149    ( 0.0000,  0.0000,  0.0000)
 119 N      5.153197    0.991763   14.562149    ( 0.0000,  0.0000,  0.0000)
 120 N      8.588596    0.991763   14.562149    ( 0.0000,  0.0000,  0.0000)
 121 N     -0.000071    3.967140   14.562149    ( 0.0000,  0.0000,  0.0000)
 122 N      3.435431    3.967140   14.562149    ( 0.0000,  0.0000,  0.0000)
 123 N      6.870830    3.967140   14.562149    ( 0.0000,  0.0000,  0.0000)
 124 N     -1.717786    6.942428   14.562149    ( 0.0000,  0.0000,  0.0000)
 125 N      1.717717    6.942428   14.562149    ( 0.0000,  0.0000,  0.0000)
 126 N      5.153115    6.942428   14.562149    ( 0.0000,  0.0000,  0.0000)
 127 N      1.717774    0.991895   18.477365    ( 0.0000,  0.0000,  0.0000)
 128 N      5.153111    0.991898   18.477357    ( 0.0000,  0.0000,  0.0000)
 129 N      8.588593    0.991736   18.477131    ( 0.0000,  0.0000,  0.0000)
 130 N      0.000103    3.967154   18.477390    ( 0.0000,  0.0000,  0.0000)
 131 N      3.435423    3.967153   18.478362    ( 0.0000,  0.0000,  0.0000)
 132 N      6.870659    3.967148   18.477411    ( 0.0000,  0.0000,  0.0000)
 133 N     -1.717792    6.942426   18.477145    ( 0.0000,  0.0000,  0.0000)
 134 N      1.717799    6.942291   18.477521    ( 0.0000,  0.0000,  0.0000)
 135 N      5.153028    6.942293   18.477548    ( 0.0000,  0.0000,  0.0000)
 136 N      1.718249    0.992532   22.373875    ( 0.0000,  0.0000,  0.0000)
 137 N      5.152644    0.992642   22.373960    ( 0.0000,  0.0000,  0.0000)
 138 N      8.588542    0.991800   22.373166    ( 0.0000,  0.0000,  0.0000)
 139 N      0.001582    3.967229   22.374820    ( 0.0000,  0.0000,  0.0000)
 140 N      3.436347    3.973949   22.398052    ( 0.0000,  0.0000,  0.0000)
 141 N      6.868723    3.967234   22.375339    ( 0.0000,  0.0000,  0.0000)
 142 N     -1.717733    6.942434   22.373176    ( 0.0000,  0.0000,  0.0000)
 143 N      1.720234    6.938799   22.377689    ( 0.0000,  0.0000,  0.0000)
 144 N      5.150313    6.938197   22.378433    ( 0.0000,  0.0000,  0.0000)

Unit cell:
           periodic     x           y           z      points  spacing
  1. axis:    yes   10.306300    0.000000    0.000000    54     0.1653
  2. axis:    yes   -5.153194    8.925954    0.000000    54     0.1653
  3. axis:    yes    0.000000    0.000000   29.633400   147     0.2016

  Lengths:  10.306300  10.306700  29.633400
  Angles:   90.000000  90.000000 119.999001

Effective grid spacing dv^(1/3) = 0.1853

                     log10-error:    total        iterations:
           time      wfs    density  energy       fermi  poisson
iter:   1  22:33:12  -3.47         -502.624918    4             
iter:   2  22:33:25  -3.95  -2.34  -502.824526    8             
iter:   3  22:33:37  -4.43  -1.96  -502.592196    4             
iter:   4  22:33:49  -5.28  -2.94  -502.591756    3             
iter:   5  22:34:01  -5.35  -3.00  -502.589656    3             
iter:   6  22:34:15  -5.15  -3.22  -502.588305    2             
iter:   7  22:34:29  -5.39  -3.34  -502.588299    2             
iter:   8  22:34:41  -5.69  -3.56  -502.587881    3             
iter:   9  22:34:52  -6.30  -3.53  -502.588043    2             
iter:  10  22:35:04  -6.84  -3.75  -502.587933    2             
iter:  11  22:35:15  -7.03  -3.72  -502.587970    3             
iter:  12  22:35:27  -6.72  -3.91  -502.588010    3             
iter:  13  22:35:38  -6.99  -4.17  -502.588048    2             
iter:  14  22:35:50  -7.62  -4.12  -502.588023    2             
iter:  15  22:36:02  -7.81  -4.25  -502.587966    2             
iter:  16  22:36:13  -8.82  -4.60  -502.587997    2             

Converged after 16 iterations.

Dipole moment: (-3.935312, 2.440202, -0.195118) |e|*Ang

Energy contributions relative to reference atoms: (reference = -75445.846558)

Kinetic:       +601.086163
Potential:     -407.483952
External:        +0.000000
XC:            -692.839625
Entropy (-ST):   -0.012968
Local:           -3.344099
--------------------------
Free energy:   -502.594481
Extrapolated:  -502.587997

Fermi level: -0.49465

Showing only first 2 kpts
 Kpt  Band  Eigenvalues  Occupancy
  0   142     -0.49497    0.33859
  0   143     -0.47527    0.08386
  0   144     -0.40441    0.00008
  0   145     -0.32568    0.00000

  1   142     -0.54582    0.66269
  1   143     -0.51683    0.60123
  1   144     -0.46518    0.03325
  1   145     -0.36790    0.00000


No gap

Forces in eV/Ang:
  0 Li   -0.08325   -0.64222    0.40014
  1 Li    0.00004    0.00005   -0.01759
  2 Li   -0.00002    0.00008   -0.01759
  3 Li   -0.00002    0.00003   -0.01757
  4 Li    0.00004   -0.00002   -0.01759
  5 Li   -0.00002    0.00000   -0.01775
  6 Li   -0.00003   -0.00002   -0.01761
  7 Li    0.00004   -0.00005   -0.01757
  8 Li   -0.00001   -0.00002   -0.01762
  9 Li   -0.00002   -0.00005   -0.01764
 10 Li   -0.00618    0.00239   -0.00704
 11 Li   -0.00691    0.00243   -0.00700
 12 Li   -0.00637    0.00221   -0.00704
 13 Li    0.00610   -0.00183   -0.00700
 14 Li    0.00664   -0.00220   -0.00714
 15 Li    0.00589   -0.00201   -0.00702
 16 Li   -0.00586    0.00195   -0.00704
 17 Li   -0.00673    0.00206   -0.00714
 18 Li   -0.00604    0.00176   -0.00715
 19 Li    0.00641   -0.00212   -0.00703
 20 Li    0.00683   -0.00243   -0.00717
 21 Li    0.00623   -0.00232   -0.00717
 22 Li   -0.00609    0.00235   -0.00704
 23 Li   -0.00695    0.00246   -0.00704
 24 Li   -0.00641    0.00224   -0.00718
 25 Li    0.00647   -0.00217   -0.00704
 26 Li    0.00686   -0.00246   -0.00705
 27 Li    0.00613   -0.00229   -0.00705
 28 Li   -0.00005   -0.00015   -0.00146
 29 Li    0.00007   -0.00009   -0.00148
 30 Li    0.00001    0.00010   -0.00132
 31 Li   -0.00022   -0.00011   -0.00148
 32 Li   -0.00004   -0.00007   -0.00184
 33 Li    0.00023   -0.00007   -0.00150
 34 Li    0.00003   -0.00002   -0.00132
 35 Li   -0.00016    0.00022   -0.00158
 36 Li    0.00013    0.00019   -0.00158
 37 Li    0.00013    0.00096    0.01491
 38 Li   -0.00023    0.00017    0.01534
 39 Li    0.00076    0.00074    0.01492
 40 Li   -0.00085   -0.00007    0.01528
 41 Li   -0.00008   -0.00161    0.01425
 42 Li   -0.00058   -0.00029    0.01524
 43 Li    0.00089   -0.00053    0.01496
 44 Li   -0.00117   -0.00062    0.01423
 45 Li    0.00178   -0.00091    0.01420
 46 Li   -0.00026    0.00038    0.01504
 47 Li   -0.00100   -0.00001    0.01408
 48 Li    0.00060    0.00008    0.01403
 49 Li    0.00113    0.00042    0.01506
 50 Li   -0.00073    0.00050    0.01510
 51 Li    0.00028    0.00133    0.01393
 52 Li    0.00041   -0.00024    0.01487
 53 Li   -0.00047   -0.00056    0.01485
 54 Li   -0.00061    0.00026    0.01499
 55 Li   -0.00078   -0.00136   -0.00234
 56 Li    0.00072   -0.00136   -0.00245
 57 Li    0.00002    0.00040   -0.00262
 58 Li   -0.00206   -0.00033   -0.00224
 59 Li   -0.00016   -0.00089   -0.00195
 60 Li    0.00215   -0.00034   -0.00221
 61 Li    0.00006    0.00003   -0.00261
 62 Li   -0.00141    0.00187   -0.00224
 63 Li    0.00136    0.00199   -0.00215
 64 Li   -0.00136    0.00530   -0.01634
 65 Li    0.00134   -0.00069   -0.01164
 66 Li    0.00401    0.00475   -0.01586
 67 Li   -0.00304   -0.00203   -0.01248
 68 Li   -0.00106   -0.01244   -0.02612
 69 Li    0.00012   -0.00230   -0.01300
 70 Li    0.00197   -0.00302   -0.01476
 71 Li   -0.00816   -0.00532   -0.02593
 72 Li    0.01077   -0.00549   -0.02575
 73 Li   -0.00106    0.00287   -0.01425
 74 Li   -0.01000    0.00336   -0.02565
 75 Li    0.00772    0.00313   -0.02559
 76 Li    0.00489    0.00103   -0.01532
 77 Li   -0.00193    0.00091   -0.01474
 78 Li    0.00085    0.00986   -0.02552
 79 Li    0.00371   -0.00080   -0.01666
 80 Li   -0.00568   -0.00098   -0.01627
 81 Li   -0.00152    0.00285   -0.01573
 82 Li   -0.01431   -0.02190    0.03686
 83 Li    0.01440   -0.02263    0.03690
 84 Li   -0.00054    0.00283    0.02708
 85 Li   -0.02977   -0.00085    0.04287
 86 Li   -0.00115   -0.01013    0.15926
 87 Li    0.02983   -0.00069    0.04641
 88 Li    0.00181   -0.00251    0.02681
 89 Li   -0.01633    0.02586    0.06123
 90 Li    0.01540    0.02508    0.06630
 91 Li   -0.00241    0.00484   -0.01415
 92 Li   -0.01611   -0.02336   -0.01829
 93 Li   -0.02245    0.00897   -0.01613
 94 Li   -0.01728   -0.01753   -0.02303
 95 Li    0.00627   -0.08887   -0.13159
 96 Li    0.04622   -0.01698   -0.02428
 97 Li   -0.01616    0.00835    0.00130
 98 Li   -0.10512   -0.07856   -0.19366
 99 Li    0.10516   -0.10465   -0.23872
100 Li    0.01763   -0.01948   -0.02628
101 Li   -0.32506    0.07290   -0.55990
102 Li    0.42703    0.09977   -0.74113
103 Li    0.02683    0.02993   -0.02697
104 Li   -0.05032    0.02525   -0.02958
105 Li   -0.04372    0.60388   -1.17908
106 Li    0.01062    0.00419   -0.00319
107 Li    0.01341   -0.00184   -0.00070
108 Li    0.01478    0.05441   -0.03087
109 N     0.00035    0.00031    0.06286
110 N    -0.00045    0.00040    0.06297
111 N    -0.00004    0.00030    0.06331
112 N     0.00049   -0.00036    0.06289
113 N    -0.00033   -0.00028    0.05817
114 N    -0.00005   -0.00031    0.06290
115 N     0.00037   -0.00004    0.06327
116 N    -0.00028   -0.00005    0.06284
117 N    -0.00007   -0.00009    0.06273
118 N     0.00076    0.00116   -0.02836
119 N    -0.00079    0.00128   -0.02825
120 N    -0.00008   -0.00005   -0.02994
121 N     0.00165   -0.00010   -0.02808
122 N    -0.00027    0.00006   -0.02706
123 N    -0.00121   -0.00006   -0.02785
124 N     0.00031   -0.00022   -0.02989
125 N     0.00034   -0.00088   -0.02685
126 N    -0.00069   -0.00098   -0.02675
127 N     0.00406    0.00682   -0.01585
128 N    -0.00423    0.00695   -0.01570
129 N    -0.00030   -0.00140   -0.02902
130 N     0.00919    0.00110   -0.01252
131 N    -0.00020    0.00168    0.06694
132 N    -0.00918    0.00060   -0.01030
133 N    -0.00019   -0.00018   -0.02864
134 N     0.00503   -0.00756   -0.00082
135 N    -0.00545   -0.00767    0.00160
136 N     0.03167    0.04140    0.11492
137 N    -0.03194    0.04554    0.11890
138 N    -0.00321    0.00011    0.07758
139 N     0.07506   -0.00268    0.16290
140 N     0.05189    0.38768    1.50019
141 N    -0.09352   -0.00374    0.18925
142 N     0.00261    0.00041    0.07803
143 N     0.11438   -0.17426    0.31484
144 N    -0.13207   -0.20576    0.35611

System changes: positions 

Initializing position-dependent things.

Density initialized from wave functions
                                                  
                                                  
                                                  
                                                  
                                                  
                                                  
            Li      Li     Lii                    
           Li Li   Li LiN  Li  Li                 
                  N       N       N               
             LiLiLi  Li LLi   LiLLi               
               Li   N   Li   N  Li   N            
            Li N  LiLi  N LiLi  N Li              
           Li Li   LLiLi   LiLiLi    Li           
                  N       N       N               
             LiLiLi  Li LLi   LiLLi               
               Li LiN   LiLi N  LiLi N            
            Li N    Li  N   Li  N                 
           Li Li   LLiLi   LiLiLi    Li           
             Li   N  Li   N   Li  N               
               LiLi     LLi     LLi               
            Li Li LiNi  LiLiLN  LiLi N            
               N        N       N                 
           Li Li   LLiLi   LiLiLi    Li           
             LiLi N  Li LiN   LiLiN               
                 Li N    Li  N   Li  N            
               Li Li    LiLi    LiLi              
                                                  
                    Li       Li      Li           
                                                  
                                                  
                                                  
                                                  

Positions:
   0 Li     3.516340    4.571755   24.292508    ( 0.0000,  0.0000,  0.0000)
   1 Li     1.717695    0.991763    8.714294    ( 0.0000,  0.0000,  0.0000)
   2 Li     5.153197    0.991763    8.714294    ( 0.0000,  0.0000,  0.0000)
   3 Li     8.588596    0.991763    8.714294    ( 0.0000,  0.0000,  0.0000)
   4 Li    -0.000071    3.967140    8.714294    ( 0.0000,  0.0000,  0.0000)
   5 Li     3.435431    3.967140    8.714294    ( 0.0000,  0.0000,  0.0000)
   6 Li     6.870830    3.967140    8.714294    ( 0.0000,  0.0000,  0.0000)
   7 Li    -1.717786    6.942428    8.714294    ( 0.0000,  0.0000,  0.0000)
   8 Li     1.717717    6.942428    8.714294    ( 0.0000,  0.0000,  0.0000)
   9 Li     5.153115    6.942428    8.714294    ( 0.0000,  0.0000,  0.0000)
  10 Li     0.000000    0.000000   10.653504    ( 0.0000,  0.0000,  0.0000)
  11 Li     3.435502    0.000000   10.653504    ( 0.0000,  0.0000,  0.0000)
  12 Li     6.870901    0.000000   10.653504    ( 0.0000,  0.0000,  0.0000)
  13 Li    -0.000010    1.983525   10.653504    ( 0.0000,  0.0000,  0.0000)
  14 Li     3.435389    1.983525   10.653504    ( 0.0000,  0.0000,  0.0000)
  15 Li     6.870891    1.983525   10.653504    ( 0.0000,  0.0000,  0.0000)
  16 Li    -1.717766    2.975377   10.653504    ( 0.0000,  0.0000,  0.0000)
  17 Li     1.717736    2.975377   10.653504    ( 0.0000,  0.0000,  0.0000)
  18 Li     5.153135    2.975377   10.653504    ( 0.0000,  0.0000,  0.0000)
  19 Li    -1.717776    4.958903   10.653504    ( 0.0000,  0.0000,  0.0000)
  20 Li     1.717623    4.958903   10.653504    ( 0.0000,  0.0000,  0.0000)
  21 Li     5.153125    4.958903   10.653504    ( 0.0000,  0.0000,  0.0000)
  22 Li    -3.435480    5.950666   10.653504    ( 0.0000,  0.0000,  0.0000)
  23 Li     0.000022    5.950666   10.653504    ( 0.0000,  0.0000,  0.0000)
  24 Li     3.435421    5.950666   10.653504    ( 0.0000,  0.0000,  0.0000)
  25 Li    -3.435490    7.934191   10.653504    ( 0.0000,  0.0000,  0.0000)
  26 Li    -0.000091    7.934191   10.653504    ( 0.0000,  0.0000,  0.0000)
  27 Li     3.435411    7.934191   10.653504    ( 0.0000,  0.0000,  0.0000)
  28 Li     1.717695    0.991763   12.627088    ( 0.0000,  0.0000,  0.0000)
  29 Li     5.153197    0.991763   12.627088    ( 0.0000,  0.0000,  0.0000)
  30 Li     8.588596    0.991763   12.627088    ( 0.0000,  0.0000,  0.0000)
  31 Li    -0.000071    3.967140   12.627088    ( 0.0000,  0.0000,  0.0000)
  32 Li     3.435431    3.967140   12.627088    ( 0.0000,  0.0000,  0.0000)
  33 Li     6.870830    3.967140   12.627088    ( 0.0000,  0.0000,  0.0000)
  34 Li    -1.717786    6.942428   12.627088    ( 0.0000,  0.0000,  0.0000)
  35 Li     1.717717    6.942428   12.627088    ( 0.0000,  0.0000,  0.0000)
  36 Li     5.153115    6.942428   12.627088    ( 0.0000,  0.0000,  0.0000)
  37 Li     0.000000    0.000000   14.576373    ( 0.0000,  0.0000,  0.0000)
  38 Li     3.435502    0.000000   14.576373    ( 0.0000,  0.0000,  0.0000)
  39 Li     6.870901    0.000000   14.576373    ( 0.0000,  0.0000,  0.0000)
  40 Li    -0.000010    1.983525   14.576373    ( 0.0000,  0.0000,  0.0000)
  41 Li     3.435389    1.983525   14.576373    ( 0.0000,  0.0000,  0.0000)
  42 Li     6.870891    1.983525   14.576373    ( 0.0000,  0.0000,  0.0000)
  43 Li    -1.717766    2.975377   14.576373    ( 0.0000,  0.0000,  0.0000)
  44 Li     1.717736    2.975377   14.576373    ( 0.0000,  0.0000,  0.0000)
  45 Li     5.153135    2.975377   14.576373    ( 0.0000,  0.0000,  0.0000)
  46 Li    -1.717776    4.958903   14.576373    ( 0.0000,  0.0000,  0.0000)
  47 Li     1.717623    4.958903   14.576373    ( 0.0000,  0.0000,  0.0000)
  48 Li     5.153125    4.958903   14.576373    ( 0.0000,  0.0000,  0.0000)
  49 Li    -3.435480    5.950666   14.576373    ( 0.0000,  0.0000,  0.0000)
  50 Li     0.000022    5.950666   14.576373    ( 0.0000,  0.0000,  0.0000)
  51 Li     3.435421    5.950666   14.576373    ( 0.0000,  0.0000,  0.0000)
  52 Li    -3.435490    7.934191   14.576373    ( 0.0000,  0.0000,  0.0000)
  53 Li    -0.000091    7.934191   14.576373    ( 0.0000,  0.0000,  0.0000)
  54 Li     3.435411    7.934191   14.576373    ( 0.0000,  0.0000,  0.0000)
  55 Li     1.717666    0.991713   16.541884    ( 0.0000,  0.0000,  0.0000)
  56 Li     5.153223    0.991713   16.541879    ( 0.0000,  0.0000,  0.0000)
  57 Li     8.588597    0.991778   16.541883    ( 0.0000,  0.0000,  0.0000)
  58 Li    -0.000148    3.967127   16.541886    ( 0.0000,  0.0000,  0.0000)
  59 Li     3.435424    3.967106   16.541850    ( 0.0000,  0.0000,  0.0000)
  60 Li     6.870910    3.967127   16.541887    ( 0.0000,  0.0000,  0.0000)
  61 Li    -1.717783    6.942429   16.541883    ( 0.0000,  0.0000,  0.0000)
  62 Li     1.717663    6.942498   16.541879    ( 0.0000,  0.0000,  0.0000)
  63 Li     5.153167    6.942503   16.541882    ( 0.0000,  0.0000,  0.0000)
  64 Li    -0.000059    0.000228   18.497403    ( 0.0000,  0.0000,  0.0000)
  65 Li     3.435459   -0.000025   18.497587    ( 0.0000,  0.0000,  0.0000)
  66 Li     6.871077    0.000205   18.497424    ( 0.0000,  0.0000,  0.0000)
  67 Li    -0.000139    1.983439   18.497554    ( 0.0000,  0.0000,  0.0000)
  68 Li     3.435343    1.983006   18.496985    ( 0.0000,  0.0000,  0.0000)
  69 Li     6.870891    1.983428   18.497533    ( 0.0000,  0.0000,  0.0000)
  70 Li    -1.717679    2.975247   18.497472    ( 0.0000,  0.0000,  0.0000)
  71 Li     1.717297    2.975160   18.496991    ( 0.0000,  0.0000,  0.0000)
  72 Li     5.153588    2.975152   18.496998    ( 0.0000,  0.0000,  0.0000)
  73 Li    -1.717823    4.959029   18.497491    ( 0.0000,  0.0000,  0.0000)
  74 Li     1.717206    4.959041   18.496998    ( 0.0000,  0.0000,  0.0000)
  75 Li     5.153442    4.959031   18.496999    ( 0.0000,  0.0000,  0.0000)
  76 Li    -3.435272    5.950707   18.497433    ( 0.0000,  0.0000,  0.0000)
  77 Li    -0.000158    5.950702   18.497458    ( 0.0000,  0.0000,  0.0000)
  78 Li     3.435459    5.951074   18.497000    ( 0.0000,  0.0000,  0.0000)
  79 Li    -3.435332    7.934155   18.497389    ( 0.0000,  0.0000,  0.0000)
  80 Li    -0.000337    7.934148   18.497408    ( 0.0000,  0.0000,  0.0000)
  81 Li     3.435344    7.934309   18.497413    ( 0.0000,  0.0000,  0.0000)
  82 Li     1.717130    0.990909   20.458864    ( 0.0000,  0.0000,  0.0000)
  83 Li     5.153767    0.990884   20.458862    ( 0.0000,  0.0000,  0.0000)
  84 Li     8.588573    0.991874   20.458478    ( 0.0000,  0.0000,  0.0000)
  85 Li    -0.001219    3.967125   20.459076    ( 0.0000,  0.0000,  0.0000)
  86 Li     3.435388    3.966751   20.462372    ( 0.0000,  0.0000,  0.0000)
  87 Li     6.871967    3.967136   20.459202    ( 0.0000,  0.0000,  0.0000)
  88 Li    -1.717712    6.942322   20.458464    ( 0.0000,  0.0000,  0.0000)
  89 Li     1.717136    6.943394   20.459701    ( 0.0000,  0.0000,  0.0000)
  90 Li     5.153662    6.943353   20.459871    ( 0.0000,  0.0000,  0.0000)
  91 Li    -0.000084    0.000344   22.594800    ( 0.0000,  0.0000,  0.0000)
  92 Li     3.434818   -0.000884   22.594664    ( 0.0000,  0.0000,  0.0000)
  93 Li     6.869942    0.000501   22.594722    ( 0.0000,  0.0000,  0.0000)
  94 Li    -0.000616    1.982849   22.594453    ( 0.0000,  0.0000,  0.0000)
  95 Li     3.435639    1.979337   22.589812    ( 0.0000,  0.0000,  0.0000)
  96 Li     6.872709    1.982866   22.594387    ( 0.0000,  0.0000,  0.0000)
  97 Li    -1.718436    2.975693   22.595426    ( 0.0000,  0.0000,  0.0000)
  98 Li     1.712973    2.971774   22.587243    ( 0.0000,  0.0000,  0.0000)
  99 Li     5.157890    2.970650   22.585362    ( 0.0000,  0.0000,  0.0000)
 100 Li    -1.717009    4.958130   22.594315    ( 0.0000,  0.0000,  0.0000)
 101 Li     1.703113    4.962041   22.572082    ( 0.0000,  0.0000,  0.0000)
 102 Li     5.172161    4.963194   22.564589    ( 0.0000,  0.0000,  0.0000)
 103 Li    -3.434648    5.951695   22.594147    ( 0.0000,  0.0000,  0.0000)
 104 Li    -0.001883    5.951536   22.594087    ( 0.0000,  0.0000,  0.0000)
 105 Li     3.433438    5.977576   22.546330    ( 0.0000,  0.0000,  0.0000)
 106 Li    -3.434906    7.934496   22.595241    ( 0.0000,  0.0000,  0.0000)
 107 Li     0.000361    7.934220   22.595345    ( 0.0000,  0.0000,  0.0000)
 108 Li     3.436028    7.935949   22.593879    ( 0.0000,  0.0000,  0.0000)
 109 N      1.717695    0.991763   10.638094    ( 0.0000,  0.0000,  0.0000)
 110 N      5.153197    0.991763   10.638094    ( 0.0000,  0.0000,  0.0000)
 111 N      8.588596    0.991763   10.638094    ( 0.0000,  0.0000,  0.0000)
 112 N     -0.000071    3.967140   10.638094    ( 0.0000,  0.0000,  0.0000)
 113 N      3.435431    3.967140   10.638094    ( 0.0000,  0.0000,  0.0000)
 114 N      6.870830    3.967140   10.638094    ( 0.0000,  0.0000,  0.0000)
 115 N     -1.717786    6.942428   10.638094    ( 0.0000,  0.0000,  0.0000)
 116 N      1.717717    6.942428   10.638094    ( 0.0000,  0.0000,  0.0000)
 117 N      5.153115    6.942428   10.638094    ( 0.0000,  0.0000,  0.0000)
 118 N      1.717695    0.991763   14.562149    ( 0.0000,  0.0000,  0.0000)
 119 N      5.153197    0.991763   14.562149    ( 0.0000,  0.0000,  0.0000)
 120 N      8.588596    0.991763   14.562149    ( 0.0000,  0.0000,  0.0000)
 121 N     -0.000071    3.967140   14.562149    ( 0.0000,  0.0000,  0.0000)
 122 N      3.435431    3.967140   14.562149    ( 0.0000,  0.0000,  0.0000)
 123 N      6.870830    3.967140   14.562149    ( 0.0000,  0.0000,  0.0000)
 124 N     -1.717786    6.942428   14.562149    ( 0.0000,  0.0000,  0.0000)
 125 N      1.717717    6.942428   14.562149    ( 0.0000,  0.0000,  0.0000)
 126 N      5.153115    6.942428   14.562149    ( 0.0000,  0.0000,  0.0000)
 127 N      1.717879    0.992071   18.476957    ( 0.0000,  0.0000,  0.0000)
 128 N      5.153001    0.992078   18.476953    ( 0.0000,  0.0000,  0.0000)
 129 N      8.588585    0.991700   18.476384    ( 0.0000,  0.0000,  0.0000)
 130 N      0.000340    3.967182   18.477067    ( 0.0000,  0.0000,  0.0000)
 131 N      3.435418    3.967195   18.480068    ( 0.0000,  0.0000,  0.0000)
 132 N      6.870421    3.967164   18.477145    ( 0.0000,  0.0000,  0.0000)
 133 N     -1.717797    6.942421   18.476408    ( 0.0000,  0.0000,  0.0000)
 134 N      1.717929    6.942095   18.477495    ( 0.0000,  0.0000,  0.0000)
 135 N      5.152887    6.942096   18.477585    ( 0.0000,  0.0000,  0.0000)
 136 N      1.719066    0.993602   22.376846    ( 0.0000,  0.0000,  0.0000)
 137 N      5.151820    0.993821   22.377035    ( 0.0000,  0.0000,  0.0000)
 138 N      8.588460    0.991805   22.375172    ( 0.0000,  0.0000,  0.0000)
 139 N      0.003536    3.967167   22.379035    ( 0.0000,  0.0000,  0.0000)
 140 N      3.437686    3.983952   22.436758    ( 0.0000,  0.0000,  0.0000)
 141 N      6.866286    3.967146   22.380237    ( 0.0000,  0.0000,  0.0000)
 142 N     -1.717665    6.942445   22.375193    ( 0.0000,  0.0000,  0.0000)
 143 N      1.723212    6.934273   22.385835    ( 0.0000,  0.0000,  0.0000)
 144 N      5.146880    6.932856   22.387645    ( 0.0000,  0.0000,  0.0000)

Unit cell:
           periodic     x           y           z      points  spacing
  1. axis:    yes   10.306300    0.000000    0.000000    54     0.1653
  2. axis:    yes   -5.153194    8.925954    0.000000    54     0.1653
  3. axis:    yes    0.000000    0.000000   29.633400   147     0.2016

  Lengths:  10.306300  10.306700  29.633400
  Angles:   90.000000  90.000000 119.999001

Effective grid spacing dv^(1/3) = 0.1853

                     log10-error:    total        iterations:
           time      wfs    density  energy       fermi  poisson
iter:   1  22:36:33  -3.15         -502.778900    4             
iter:   2  22:36:45  -3.87  -2.31  -502.978197    7             
iter:   3  22:36:56  -4.39  -1.96  -502.743404    4             
iter:   4  22:37:07  -5.22  -2.78  -502.742299    3             
iter:   5  22:37:16  -5.20  -2.90  -502.739198    3             
iter:   6  22:37:26  -4.92  -3.05  -502.737072    3             
iter:   7  22:37:41  -5.18  -3.19  -502.736943    2             
iter:   8  22:37:54  -5.41  -3.42  -502.736407    3             
iter:   9  22:38:07  -5.94  -3.46  -502.736553    2             
iter:  10  22:38:20  -6.70  -3.61  -502.736422    2             
iter:  11  22:38:35  -6.80  -3.62  -502.736454    3             
iter:  12  22:38:46  -6.53  -3.81  -502.736423    2             
iter:  13  22:38:58  -6.63  -4.04  -502.736473    2             
iter:  14  22:39:10  -7.18  -4.01  -502.736448    2             
iter:  15  22:39:23  -7.67  -4.11  -502.736415    2             
iter:  16  22:39:35  -7.87  -4.25  -502.736384    2             
iter:  17  22:39:48  -7.78  -4.56  -502.736369    2             
iter:  18  22:40:00  -8.24  -4.61  -502.736385    2             

Converged after 18 iterations.

Dipole moment: (-3.988043, 2.452384, -0.202938) |e|*Ang

Energy contributions relative to reference atoms: (reference = -75445.846558)

Kinetic:       +601.075320
Potential:     -407.563139
External:        +0.000000
XC:            -692.902567
Entropy (-ST):   -0.013329
Local:           -3.339335
--------------------------
Free energy:   -502.743050
Extrapolated:  -502.736385

Fermi level: -0.49504

Showing only first 2 kpts
 Kpt  Band  Eigenvalues  Occupancy
  0   142     -0.49410    0.31772
  0   143     -0.47617    0.08774
  0   144     -0.40842    0.00012
  0   145     -0.33164    0.00000

  1   142     -0.54673    0.66289
  1   143     -0.51708    0.60041
  1   144     -0.46943    0.04779
  1   145     -0.37245    0.00000


No gap

Forces in eV/Ang:
  0 Li   -0.06863   -0.52679    0.34714
  1 Li    0.00005    0.00006   -0.01759
  2 Li   -0.00002    0.00009   -0.01759
  3 Li   -0.00002    0.00003   -0.01756
  4 Li    0.00005   -0.00002   -0.01760
  5 Li   -0.00002    0.00000   -0.01813
  6 Li   -0.00004   -0.00002   -0.01762
  7 Li    0.00004   -0.00005   -0.01756
  8 Li   -0.00001   -0.00002   -0.01765
  9 Li   -0.00003   -0.00005   -0.01766
 10 Li   -0.00620    0.00238   -0.00715
 11 Li   -0.00692    0.00239   -0.00709
 12 Li   -0.00638    0.00219   -0.00715
 13 Li    0.00611   -0.00180   -0.00710
 14 Li    0.00665   -0.00218   -0.00726
 15 Li    0.00591   -0.00199   -0.00712
 16 Li   -0.00587    0.00191   -0.00714
 17 Li   -0.00674    0.00203   -0.00726
 18 Li   -0.00605    0.00173   -0.00728
 19 Li    0.00642   -0.00209   -0.00714
 20 Li    0.00684   -0.00240   -0.00730
 21 Li    0.00624   -0.00230   -0.00730
 22 Li   -0.00609    0.00232   -0.00714
 23 Li   -0.00698    0.00243   -0.00714
 24 Li   -0.00642    0.00221   -0.00732
 25 Li    0.00649   -0.00215   -0.00715
 26 Li    0.00686   -0.00244   -0.00716
 27 Li    0.00614   -0.00225   -0.00716
 28 Li   -0.00008   -0.00019   -0.00227
 29 Li    0.00009   -0.00014   -0.00228
 30 Li    0.00001    0.00011   -0.00209
 31 Li   -0.00028   -0.00012   -0.00229
 32 Li   -0.00004   -0.00009   -0.00240
 33 Li    0.00029   -0.00008   -0.00230
 34 Li    0.00003   -0.00001   -0.00210
 35 Li   -0.00020    0.00028   -0.00238
 36 Li    0.00017    0.00025   -0.00238
 37 Li    0.00005    0.00108    0.01481
 38 Li   -0.00023    0.00011    0.01532
 39 Li    0.00084    0.00085    0.01482
 40 Li   -0.00090   -0.00011    0.01524
 41 Li   -0.00009   -0.00201    0.01404
 42 Li   -0.00053   -0.00034    0.01520
 43 Li    0.00090   -0.00065    0.01487
 44 Li   -0.00150   -0.00083    0.01401
 45 Li    0.00211   -0.00113    0.01398
 46 Li   -0.00025    0.00050    0.01495
 47 Li   -0.00135    0.00013    0.01383
 48 Li    0.00093    0.00022    0.01378
 49 Li    0.00125    0.00045    0.01497
 50 Li   -0.00084    0.00052    0.01503
 51 Li    0.00027    0.00167    0.01368
 52 Li    0.00056   -0.00025    0.01478
 53 Li   -0.00062   -0.00058    0.01476
 54 Li   -0.00061    0.00039    0.01490
 55 Li   -0.00099   -0.00184   -0.00456
 56 Li    0.00093   -0.00188   -0.00464
 57 Li    0.00002    0.00057   -0.00582
 58 Li   -0.00268   -0.00042   -0.00420
 59 Li   -0.00017   -0.00100    0.00278
 60 Li    0.00280   -0.00045   -0.00400
 61 Li    0.00010    0.00016   -0.00577
 62 Li   -0.00178    0.00239   -0.00322
 63 Li    0.00169    0.00251   -0.00293
 64 Li   -0.00088    0.00364   -0.01501
 65 Li    0.00080   -0.00097   -0.01008
 66 Li    0.00240    0.00325   -0.01469
 67 Li   -0.00248   -0.00154   -0.01096
 68 Li   -0.00064   -0.00942   -0.02077
 69 Li    0.00079   -0.00177   -0.01136
 70 Li    0.00124   -0.00200   -0.01412
 71 Li   -0.00638   -0.00422   -0.02043
 72 Li    0.00787   -0.00430   -0.02009
 73 Li   -0.00057    0.00162   -0.01347
 74 Li   -0.00746    0.00264   -0.01919
 75 Li    0.00607    0.00250   -0.01897
 76 Li    0.00359    0.00113   -0.01261
 77 Li   -0.00186    0.00106   -0.01235
 78 Li    0.00046    0.00765   -0.01849
 79 Li    0.00263   -0.00050   -0.01533
 80 Li   -0.00373   -0.00065   -0.01515
 81 Li   -0.00092    0.00235   -0.01235
 82 Li   -0.01456   -0.02374    0.03637
 83 Li    0.01444   -0.02490    0.03658
 84 Li   -0.00040    0.00310    0.02715
 85 Li   -0.03418   -0.00299    0.04339
 86 Li   -0.00154   -0.01279    0.24814
 87 Li    0.03589   -0.00344    0.04740
 88 Li    0.00175   -0.00155    0.02711
 89 Li   -0.02450    0.03354    0.06740
 90 Li    0.02319    0.03400    0.07460
 91 Li   -0.00131   -0.00511   -0.00614
 92 Li   -0.01224   -0.02548   -0.01259
 93 Li   -0.01820   -0.00067   -0.00811
 94 Li   -0.02295   -0.01939   -0.01475
 95 Li    0.00608   -0.03438   -0.09257
 96 Li    0.04623   -0.01888   -0.01436
 97 Li   -0.01294    0.00870    0.00813
 98 Li   -0.05608   -0.03599   -0.14509
 99 Li    0.05711   -0.05333   -0.18207
100 Li    0.01235   -0.01975   -0.01807
101 Li   -0.18570    0.05230   -0.45889
102 Li    0.24612    0.07003   -0.61538
103 Li    0.04594    0.04121   -0.00230
104 Li   -0.05760    0.03446   -0.01010
105 Li   -0.02261    0.34603   -0.97869
106 Li   -0.00102   -0.00494    0.00442
107 Li    0.01781   -0.00838    0.00650
108 Li    0.01166    0.08465    0.00585
109 N     0.00033    0.00023    0.06422
110 N    -0.00044    0.00032    0.06433
111 N    -0.00005    0.00030    0.06499
112 N     0.00041   -0.00041    0.06418
113 N    -0.00026    0.00021    0.04693
114 N     0.00002   -0.00036    0.06412
115 N     0.00037   -0.00005    0.06495
116 N    -0.00032   -0.00005    0.06367
117 N    -0.00005   -0.00011    0.06342
118 N     0.00075    0.00130   -0.02827
119 N    -0.00074    0.00145   -0.02814
120 N    -0.00010   -0.00017   -0.03004
121 N     0.00181    0.00006   -0.02788
122 N    -0.00034   -0.00045   -0.03421
123 N    -0.00137    0.00008   -0.02763
124 N     0.00029   -0.00036   -0.03000
125 N     0.00044   -0.00091   -0.02676
126 N    -0.00074   -0.00100   -0.02672
127 N     0.00204    0.00346   -0.01085
128 N    -0.00219    0.00342   -0.01065
129 N    -0.00014   -0.00012   -0.02126
130 N     0.00446    0.00040   -0.00693
131 N    -0.00027   -0.00035    0.09307
132 N    -0.00436    0.00008   -0.00452
133 N    -0.00001    0.00024   -0.02101
134 N     0.00216   -0.00343    0.00550
135 N    -0.00247   -0.00348    0.00840
136 N     0.01913    0.02075    0.06910
137 N    -0.01961    0.02067    0.07102
138 N    -0.00245    0.00093    0.05228
139 N     0.02102   -0.01147    0.09526
140 N     0.03397    0.25490    1.09637
141 N    -0.02379   -0.01434    0.10997
142 N     0.00201    0.00227    0.05233
143 N     0.03604   -0.07074    0.18700
144 N    -0.05057   -0.08872    0.21441

System changes: positions 

Initializing position-dependent things.

Density initialized from wave functions
                                                  
                                                  
                                                  
                                                  
                                                  
                                                  
            Li      Li     Lii                    
           Li Li   Li   N  Li   N                 
                  N   Li  N    Li N               
             LiLiLi  Li LLi   LiLLi               
               Li   N   Li   N  Li   N            
            Li N  LiLi  N LiLi  N Li              
           Li Li   LLiLi   LiLiLi    Li           
                  N       N       N               
             LiLiLi  Li LLi   LiLLi               
               Li LiN   LiLi N  LiLi N            
            Li N    Li  N   Li  N                 
           Li Li   LLiLi   LiLiLi    Li           
             Li   N  Li   N   Li  N               
               LiLi     LLi     LLi               
            Li Li LiNi  LiLiLN  LiLi N            
               N        N       N                 
           Li Li   LLiLi   LiLiLi    Li           
             LiLi N  Li LiN   LiLiN               
                 Li N    Li  N   Li  N            
               Li Li    LiLi    LiLi              
                                                  
                    Li       Li      Li           
                                                  
                                                  
                                                  
                                                  

Positions:
   0 Li     3.514054    4.554166   24.303825    ( 0.0000,  0.0000,  0.0000)
   1 Li     1.717695    0.991763    8.714294    ( 0.0000,  0.0000,  0.0000)
   2 Li     5.153197    0.991763    8.714294    ( 0.0000,  0.0000,  0.0000)
   3 Li     8.588596    0.991763    8.714294    ( 0.0000,  0.0000,  0.0000)
   4 Li    -0.000071    3.967140    8.714294    ( 0.0000,  0.0000,  0.0000)
   5 Li     3.435431    3.967140    8.714294    ( 0.0000,  0.0000,  0.0000)
   6 Li     6.870830    3.967140    8.714294    ( 0.0000,  0.0000,  0.0000)
   7 Li    -1.717786    6.942428    8.714294    ( 0.0000,  0.0000,  0.0000)
   8 Li     1.717717    6.942428    8.714294    ( 0.0000,  0.0000,  0.0000)
   9 Li     5.153115    6.942428    8.714294    ( 0.0000,  0.0000,  0.0000)
  10 Li     0.000000    0.000000   10.653504    ( 0.0000,  0.0000,  0.0000)
  11 Li     3.435502    0.000000   10.653504    ( 0.0000,  0.0000,  0.0000)
  12 Li     6.870901    0.000000   10.653504    ( 0.0000,  0.0000,  0.0000)
  13 Li    -0.000010    1.983525   10.653504    ( 0.0000,  0.0000,  0.0000)
  14 Li     3.435389    1.983525   10.653504    ( 0.0000,  0.0000,  0.0000)
  15 Li     6.870891    1.983525   10.653504    ( 0.0000,  0.0000,  0.0000)
  16 Li    -1.717766    2.975377   10.653504    ( 0.0000,  0.0000,  0.0000)
  17 Li     1.717736    2.975377   10.653504    ( 0.0000,  0.0000,  0.0000)
  18 Li     5.153135    2.975377   10.653504    ( 0.0000,  0.0000,  0.0000)
  19 Li    -1.717776    4.958903   10.653504    ( 0.0000,  0.0000,  0.0000)
  20 Li     1.717623    4.958903   10.653504    ( 0.0000,  0.0000,  0.0000)
  21 Li     5.153125    4.958903   10.653504    ( 0.0000,  0.0000,  0.0000)
  22 Li    -3.435480    5.950666   10.653504    ( 0.0000,  0.0000,  0.0000)
  23 Li     0.000022    5.950666   10.653504    ( 0.0000,  0.0000,  0.0000)
  24 Li     3.435421    5.950666   10.653504    ( 0.0000,  0.0000,  0.0000)
  25 Li    -3.435490    7.934191   10.653504    ( 0.0000,  0.0000,  0.0000)
  26 Li    -0.000091    7.934191   10.653504    ( 0.0000,  0.0000,  0.0000)
  27 Li     3.435411    7.934191   10.653504    ( 0.0000,  0.0000,  0.0000)
  28 Li     1.717695    0.991763   12.627088    ( 0.0000,  0.0000,  0.0000)
  29 Li     5.153197    0.991763   12.627088    ( 0.0000,  0.0000,  0.0000)
  30 Li     8.588596    0.991763   12.627088    ( 0.0000,  0.0000,  0.0000)
  31 Li    -0.000071    3.967140   12.627088    ( 0.0000,  0.0000,  0.0000)
  32 Li     3.435431    3.967140   12.627088    ( 0.0000,  0.0000,  0.0000)
  33 Li     6.870830    3.967140   12.627088    ( 0.0000,  0.0000,  0.0000)
  34 Li    -1.717786    6.942428   12.627088    ( 0.0000,  0.0000,  0.0000)
  35 Li     1.717717    6.942428   12.627088    ( 0.0000,  0.0000,  0.0000)
  36 Li     5.153115    6.942428   12.627088    ( 0.0000,  0.0000,  0.0000)
  37 Li     0.000000    0.000000   14.576373    ( 0.0000,  0.0000,  0.0000)
  38 Li     3.435502    0.000000   14.576373    ( 0.0000,  0.0000,  0.0000)
  39 Li     6.870901    0.000000   14.576373    ( 0.0000,  0.0000,  0.0000)
  40 Li    -0.000010    1.983525   14.576373    ( 0.0000,  0.0000,  0.0000)
  41 Li     3.435389    1.983525   14.576373    ( 0.0000,  0.0000,  0.0000)
  42 Li     6.870891    1.983525   14.576373    ( 0.0000,  0.0000,  0.0000)
  43 Li    -1.717766    2.975377   14.576373    ( 0.0000,  0.0000,  0.0000)
  44 Li     1.717736    2.975377   14.576373    ( 0.0000,  0.0000,  0.0000)
  45 Li     5.153135    2.975377   14.576373    ( 0.0000,  0.0000,  0.0000)
  46 Li    -1.717776    4.958903   14.576373    ( 0.0000,  0.0000,  0.0000)
  47 Li     1.717623    4.958903   14.576373    ( 0.0000,  0.0000,  0.0000)
  48 Li     5.153125    4.958903   14.576373    ( 0.0000,  0.0000,  0.0000)
  49 Li    -3.435480    5.950666   14.576373    ( 0.0000,  0.0000,  0.0000)
  50 Li     0.000022    5.950666   14.576373    ( 0.0000,  0.0000,  0.0000)
  51 Li     3.435421    5.950666   14.576373    ( 0.0000,  0.0000,  0.0000)
  52 Li    -3.435490    7.934191   14.576373    ( 0.0000,  0.0000,  0.0000)
  53 Li    -0.000091    7.934191   14.576373    ( 0.0000,  0.0000,  0.0000)
  54 Li     3.435411    7.934191   14.576373    ( 0.0000,  0.0000,  0.0000)
  55 Li     1.717638    0.991663   16.541773    ( 0.0000,  0.0000,  0.0000)
  56 Li     5.153249    0.991662   16.541766    ( 0.0000,  0.0000,  0.0000)
  57 Li     8.588597    0.991793   16.541747    ( 0.0000,  0.0000,  0.0000)
  58 Li    -0.000222    3.967116   16.541783    ( 0.0000,  0.0000,  0.0000)
  59 Li     3.435419    3.967076   16.541875    ( 0.0000,  0.0000,  0.0000)
  60 Li     6.870987    3.967115   16.541788    ( 0.0000,  0.0000,  0.0000)
  61 Li    -1.717781    6.942432   16.541747    ( 0.0000,  0.0000,  0.0000)
  62 Li     1.717614    6.942565   16.541794    ( 0.0000,  0.0000,  0.0000)
  63 Li     5.153214    6.942573   16.541803    ( 0.0000,  0.0000,  0.0000)
  64 Li    -0.000092    0.000361   18.496928    ( 0.0000,  0.0000,  0.0000)
  65 Li     3.435490   -0.000051   18.497259    ( 0.0000,  0.0000,  0.0000)
  66 Li     6.871171    0.000323   18.496961    ( 0.0000,  0.0000,  0.0000)
  67 Li    -0.000222    1.983386   18.497200    ( 0.0000,  0.0000,  0.0000)
  68 Li     3.435318    1.982680   18.496283    ( 0.0000,  0.0000,  0.0000)
  69 Li     6.870906    1.983367   18.497166    ( 0.0000,  0.0000,  0.0000)
  70 Li    -1.717632    2.975173   18.497033    ( 0.0000,  0.0000,  0.0000)
  71 Li     1.717079    2.975017   18.496298    ( 0.0000,  0.0000,  0.0000)
  72 Li     5.153865    2.975005   18.496314    ( 0.0000,  0.0000,  0.0000)
  73 Li    -1.717847    4.959094   18.497070    ( 0.0000,  0.0000,  0.0000)
  74 Li     1.716946    4.959131   18.496330    ( 0.0000,  0.0000,  0.0000)
  75 Li     5.153648    4.959115   18.496337    ( 0.0000,  0.0000,  0.0000)
  76 Li    -3.435146    5.950741   18.497014    ( 0.0000,  0.0000,  0.0000)
  77 Li    -0.000216    5.950733   18.497051    ( 0.0000,  0.0000,  0.0000)
  78 Li     3.435478    5.951336   18.496348    ( 0.0000,  0.0000,  0.0000)
  79 Li    -3.435237    7.934136   18.496905    ( 0.0000,  0.0000,  0.0000)
  80 Li    -0.000476    7.934124   18.496931    ( 0.0000,  0.0000,  0.0000)
  81 Li     3.435308    7.934387   18.496993    ( 0.0000,  0.0000,  0.0000)
  82 Li     1.716689    0.990208   20.459978    ( 0.0000,  0.0000,  0.0000)
  83 Li     5.154207    0.990153   20.459981    ( 0.0000,  0.0000,  0.0000)
  84 Li     8.588559    0.991966   20.459305    ( 0.0000,  0.0000,  0.0000)
  85 Li    -0.002207    3.967061   20.460390    ( 0.0000,  0.0000,  0.0000)
  86 Li     3.435345    3.966394   20.468755    ( 0.0000,  0.0000,  0.0000)
  87 Li     6.872986    3.967066   20.460632    ( 0.0000,  0.0000,  0.0000)
  88 Li    -1.717658    6.942262   20.459287    ( 0.0000,  0.0000,  0.0000)
  89 Li     1.716492    6.944321   20.461671    ( 0.0000,  0.0000,  0.0000)
  90 Li     5.154271    6.944278   20.462033    ( 0.0000,  0.0000,  0.0000)
  91 Li    -0.000136    0.000321   22.594506    ( 0.0000,  0.0000,  0.0000)
  92 Li     3.434394   -0.001632   22.594204    ( 0.0000,  0.0000,  0.0000)
  93 Li     6.869329    0.000610   22.594369    ( 0.0000,  0.0000,  0.0000)
  94 Li    -0.001241    1.982281   22.593894    ( 0.0000,  0.0000,  0.0000)
  95 Li     3.435826    1.977573   22.586478    ( 0.0000,  0.0000,  0.0000)
  96 Li     6.874119    1.982314   22.593819    ( 0.0000,  0.0000,  0.0000)
  97 Li    -1.718873    2.975953   22.595584    ( 0.0000,  0.0000,  0.0000)
  98 Li     1.710618    2.970120   22.582180    ( 0.0000,  0.0000,  0.0000)
  99 Li     5.160264    2.968353   22.579065    ( 0.0000,  0.0000,  0.0000)
 100 Li    -1.716562    4.957530   22.593654    ( 0.0000,  0.0000,  0.0000)
 101 Li     1.695623    4.963908   22.556750    ( 0.0000,  0.0000,  0.0000)
 102 Li     5.182038    4.965720   22.544154    ( 0.0000,  0.0000,  0.0000)
 103 Li    -3.433496    5.952803   22.593758    ( 0.0000,  0.0000,  0.0000)
 104 Li    -0.003546    5.952466   22.593526    ( 0.0000,  0.0000,  0.0000)
 105 Li     3.432471    5.991506   22.513825    ( 0.0000,  0.0000,  0.0000)
 106 Li    -3.434783    7.934468   22.595276    ( 0.0000,  0.0000,  0.0000)
 107 Li     0.000845    7.934052   22.595449    ( 0.0000,  0.0000,  0.0000)
 108 Li     3.436424    7.938133   22.593584    ( 0.0000,  0.0000,  0.0000)
 109 N      1.717695    0.991763   10.638094    ( 0.0000,  0.0000,  0.0000)
 110 N      5.153197    0.991763   10.638094    ( 0.0000,  0.0000,  0.0000)
 111 N      8.588596    0.991763   10.638094    ( 0.0000,  0.0000,  0.0000)
 112 N     -0.000071    3.967140   10.638094    ( 0.0000,  0.0000,  0.0000)
 113 N      3.435431    3.967140   10.638094    ( 0.0000,  0.0000,  0.0000)
 114 N      6.870830    3.967140   10.638094    ( 0.0000,  0.0000,  0.0000)
 115 N     -1.717786    6.942428   10.638094    ( 0.0000,  0.0000,  0.0000)
[...]
  0   143     -0.45461    0.09859
  0   144     -0.38615    0.00012
  0   145     -0.31424    0.00000

  1   142     -0.52521    0.66338
  1   143     -0.49487    0.60450
  1   144     -0.44524    0.04247
  1   145     -0.35035    0.00000


No gap

Forces in eV/Ang:
  0 Li   -0.00795   -0.06927   -0.25760
  1 Li    0.00002    0.00001   -0.01870
  2 Li   -0.00000    0.00008   -0.01870
  3 Li   -0.00001    0.00003   -0.01870
  4 Li    0.00002   -0.00000   -0.01871
  5 Li   -0.00002    0.00000   -0.02126
  6 Li   -0.00001   -0.00003   -0.01874
  7 Li    0.00003   -0.00005   -0.01871
  8 Li   -0.00001   -0.00002   -0.01879
  9 Li   -0.00001   -0.00002   -0.01885
 10 Li   -0.00627    0.00233   -0.00777
 11 Li   -0.00695    0.00223   -0.00769
 12 Li   -0.00636    0.00214   -0.00775
 13 Li    0.00608   -0.00172   -0.00770
 14 Li    0.00668   -0.00217   -0.00801
 15 Li    0.00598   -0.00191   -0.00772
 16 Li   -0.00590    0.00176   -0.00773
 17 Li   -0.00685    0.00188   -0.00801
 18 Li   -0.00599    0.00157   -0.00804
 19 Li    0.00645   -0.00192   -0.00772
 20 Li    0.00677   -0.00226   -0.00807
 21 Li    0.00635   -0.00216   -0.00807
 22 Li   -0.00604    0.00222   -0.00776
 23 Li   -0.00707    0.00234   -0.00775
 24 Li   -0.00645    0.00218   -0.00810
 25 Li    0.00659   -0.00205   -0.00777
 26 Li    0.00682   -0.00234   -0.00776
 27 Li    0.00616   -0.00206   -0.00779
 28 Li   -0.00022   -0.00043   -0.00489
 29 Li    0.00023   -0.00039   -0.00490
 30 Li    0.00001    0.00018   -0.00461
 31 Li   -0.00063   -0.00015   -0.00482
 32 Li   -0.00006   -0.00020   -0.00111
 33 Li    0.00066   -0.00013   -0.00481
 34 Li    0.00004   -0.00001   -0.00462
 35 Li   -0.00041    0.00057   -0.00476
 36 Li    0.00037    0.00055   -0.00471
 37 Li   -0.00053    0.00135    0.01337
 38 Li   -0.00024    0.00040    0.01427
 39 Li    0.00142    0.00110    0.01333
 40 Li   -0.00059    0.00005    0.01426
 41 Li   -0.00007   -0.00268    0.01620
 42 Li   -0.00085   -0.00019    0.01426
 43 Li    0.00091   -0.00113    0.01288
 44 Li   -0.00219   -0.00105    0.01638
 45 Li    0.00279   -0.00134    0.01645
 46 Li   -0.00026    0.00109    0.01328
 47 Li   -0.00200    0.00047    0.01675
 48 Li    0.00158    0.00052    0.01686
 49 Li    0.00095    0.00017    0.01469
 50 Li   -0.00052    0.00022    0.01455
 51 Li    0.00026    0.00236    0.01688
 52 Li    0.00102   -0.00057    0.01323
 53 Li   -0.00105   -0.00087    0.01307
 54 Li   -0.00064    0.00010    0.01494
 55 Li   -0.00002    0.00007    0.00186
 56 Li    0.00002    0.00014    0.00198
 57 Li   -0.00002   -0.00008    0.00443
 58 Li    0.00031    0.00029    0.00247
 59 Li    0.00018    0.00163    0.05898
 60 Li   -0.00048    0.00033    0.00285
 61 Li   -0.00001   -0.00027    0.00439
 62 Li    0.00103   -0.00094    0.00654
 63 Li   -0.00103   -0.00109    0.00856
 64 Li   -0.00215    0.00388   -0.01278
 65 Li    0.00026    0.00165   -0.00491
 66 Li    0.00289    0.00354   -0.01360
 67 Li    0.00150    0.00046   -0.00529
 68 Li   -0.00002    0.00010    0.04941
 69 Li   -0.00228    0.00025   -0.00495
 70 Li    0.00083   -0.00344   -0.01727
 71 Li    0.00003    0.00183    0.05404
 72 Li    0.00049    0.00223    0.05734
 73 Li    0.00001    0.00364   -0.01438
 74 Li    0.00253    0.00101    0.07071
 75 Li   -0.00296    0.00077    0.07468
 76 Li   -0.00105   -0.00286    0.00456
 77 Li    0.00137   -0.00282    0.00055
 78 Li    0.00063   -0.00206    0.08046
 79 Li    0.00460    0.00056   -0.01427
 80 Li   -0.00503    0.00052   -0.01618
 81 Li   -0.00049   -0.00323    0.01360
 82 Li   -0.00496   -0.01178   -0.02260
 83 Li    0.00460   -0.01356   -0.02394
 84 Li    0.00012   -0.00705   -0.00003
 85 Li   -0.03610   -0.00986   -0.04655
 86 Li   -0.01764   -0.13055   -0.09358
 87 Li    0.05266   -0.01409   -0.05926
 88 Li   -0.00188   -0.00050   -0.00138
 89 Li   -0.07228    0.08327   -0.10628
 90 Li    0.07487    0.09832   -0.11777
 91 Li    0.00710    0.02337   -0.03470
 92 Li    0.00242    0.03594   -0.02533
 93 Li   -0.00062    0.01914   -0.03696
 94 Li    0.02920    0.01873   -0.00569
 95 Li   -0.00025   -0.03959    0.04817
 96 Li   -0.03262    0.01878    0.00453
 97 Li    0.00679   -0.00209    0.01389
 98 Li   -0.04341   -0.01054    0.06066
 99 Li    0.05021   -0.00676    0.07172
100 Li    0.00009    0.00464   -0.04010
101 Li   -0.03759    0.03444    0.03001
102 Li    0.04479    0.02743   -0.00274
103 Li   -0.06526   -0.04757    0.13132
104 Li    0.05018   -0.03376    0.08323
105 Li   -0.00351    0.07122   -0.01904
106 Li    0.01809    0.03108   -0.00734
107 Li   -0.02080    0.02927    0.00348
108 Li   -0.00436   -0.13645    0.20692
109 N     0.00026   -0.00003    0.06674
110 N    -0.00038    0.00001    0.06681
111 N    -0.00007    0.00014    0.06746
112 N     0.00014   -0.00065    0.06644
113 N    -0.00038   -0.00067   -0.03895
114 N     0.00034   -0.00060    0.06628
115 N     0.00036   -0.00016    0.06750
116 N    -0.00064    0.00015    0.06510
117 N     0.00018    0.00006    0.06441
118 N    -0.00003   -0.00020   -0.03676
119 N     0.00003   -0.00010   -0.03653
120 N    -0.00002    0.00062   -0.03814
121 N     0.00011   -0.00002   -0.03425
122 N    -0.00030   -0.00009   -0.02428
123 N     0.00025   -0.00000   -0.03272
124 N     0.00042    0.00033   -0.03786
125 N    -0.00028    0.00033   -0.02595
126 N    -0.00004    0.00021   -0.02382
127 N     0.00077   -0.00014   -0.00232
128 N    -0.00082   -0.00042   -0.00330
129 N     0.00005   -0.00061    0.00716
130 N    -0.00208   -0.00152   -0.01225
131 N    -0.00109   -0.00711    0.01514
132 N     0.00340   -0.00216   -0.01670
133 N    -0.00006    0.00040    0.00733
134 N    -0.00572    0.00517   -0.02749
135 N     0.00528    0.00620   -0.02897
136 N     0.00887    0.03203    0.02191
137 N    -0.00491    0.03844    0.02408
138 N     0.00072   -0.01258    0.03378
139 N     0.06221    0.03451    0.01652
140 N     0.00593    0.04824    0.00463
141 N    -0.07563    0.03828    0.01049
142 N    -0.00163   -0.00402    0.03125
143 N     0.07787   -0.07224   -0.03095
144 N    -0.06759   -0.07604   -0.04972

System changes: positions 

Initializing position-dependent things.

Density initialized from wave functions
                                                  
                                                  
                                                  
                                                  
                                                  
                                                  
            Li      Li     Lii                    
           Li  N   Li   N  Li   N                 
              Li  N   Li  N    Li N               
             LiLiLi  Li LLi   LiLLi               
               Li   N        N  Li   N            
            Li N  LiLi  LiLiLi  N  Li             
           Li      Li      Li                     
              Li  N LiLi  N  LiLi N  Li           
             LiLiLi  Li LLi   LiLLi               
               Li   N   Li   N  Li   N            
            Li N  LiLi  N LiLi  N Li              
           Li Li   LLiLi   LiLiLi    Li           
                  N       N       N               
             LiLiLi  Li LLi   LiLLi               
            Li Li LiNi  LiLiLN  LiLi N            
               N        N       N                 
           Li Li   LLiLi   LiLiLi    Li           
             LiLi N  Li LiN   LiLiN               
                 Li N    Li  N   Li  N            
               Li Li    LiLi    LiLi              
                                                  
                    Li       Li      Li           
                                                  
                                                  
                                                  
                                                  

Positions:
   0 Li     3.499405    4.441001   24.431516    ( 0.0000,  0.0000,  0.0000)
   1 Li     1.717695    0.991763    8.714294    ( 0.0000,  0.0000,  0.0000)
   2 Li     5.153197    0.991763    8.714294    ( 0.0000,  0.0000,  0.0000)
   3 Li     8.588596    0.991763    8.714294    ( 0.0000,  0.0000,  0.0000)
   4 Li    -0.000071    3.967140    8.714294    ( 0.0000,  0.0000,  0.0000)
   5 Li     3.435431    3.967140    8.714294    ( 0.0000,  0.0000,  0.0000)
   6 Li     6.870830    3.967140    8.714294    ( 0.0000,  0.0000,  0.0000)
   7 Li    -1.717786    6.942428    8.714294    ( 0.0000,  0.0000,  0.0000)
   8 Li     1.717717    6.942428    8.714294    ( 0.0000,  0.0000,  0.0000)
   9 Li     5.153115    6.942428    8.714294    ( 0.0000,  0.0000,  0.0000)
  10 Li     0.000000    0.000000   10.653504    ( 0.0000,  0.0000,  0.0000)
  11 Li     3.435502    0.000000   10.653504    ( 0.0000,  0.0000,  0.0000)
  12 Li     6.870901    0.000000   10.653504    ( 0.0000,  0.0000,  0.0000)
  13 Li    -0.000010    1.983525   10.653504    ( 0.0000,  0.0000,  0.0000)
  14 Li     3.435389    1.983525   10.653504    ( 0.0000,  0.0000,  0.0000)
  15 Li     6.870891    1.983525   10.653504    ( 0.0000,  0.0000,  0.0000)
  16 Li    -1.717766    2.975377   10.653504    ( 0.0000,  0.0000,  0.0000)
  17 Li     1.717736    2.975377   10.653504    ( 0.0000,  0.0000,  0.0000)
  18 Li     5.153135    2.975377   10.653504    ( 0.0000,  0.0000,  0.0000)
  19 Li    -1.717776    4.958903   10.653504    ( 0.0000,  0.0000,  0.0000)
  20 Li     1.717623    4.958903   10.653504    ( 0.0000,  0.0000,  0.0000)
  21 Li     5.153125    4.958903   10.653504    ( 0.0000,  0.0000,  0.0000)
  22 Li    -3.435480    5.950666   10.653504    ( 0.0000,  0.0000,  0.0000)
  23 Li     0.000022    5.950666   10.653504    ( 0.0000,  0.0000,  0.0000)
  24 Li     3.435421    5.950666   10.653504    ( 0.0000,  0.0000,  0.0000)
  25 Li    -3.435490    7.934191   10.653504    ( 0.0000,  0.0000,  0.0000)
  26 Li    -0.000091    7.934191   10.653504    ( 0.0000,  0.0000,  0.0000)
  27 Li     3.435411    7.934191   10.653504    ( 0.0000,  0.0000,  0.0000)
  28 Li     1.717695    0.991763   12.627088    ( 0.0000,  0.0000,  0.0000)
  29 Li     5.153197    0.991763   12.627088    ( 0.0000,  0.0000,  0.0000)
  30 Li     8.588596    0.991763   12.627088    ( 0.0000,  0.0000,  0.0000)
  31 Li    -0.000071    3.967140   12.627088    ( 0.0000,  0.0000,  0.0000)
  32 Li     3.435431    3.967140   12.627088    ( 0.0000,  0.0000,  0.0000)
  33 Li     6.870830    3.967140   12.627088    ( 0.0000,  0.0000,  0.0000)
  34 Li    -1.717786    6.942428   12.627088    ( 0.0000,  0.0000,  0.0000)
  35 Li     1.717717    6.942428   12.627088    ( 0.0000,  0.0000,  0.0000)
  36 Li     5.153115    6.942428   12.627088    ( 0.0000,  0.0000,  0.0000)
  37 Li     0.000000    0.000000   14.576373    ( 0.0000,  0.0000,  0.0000)
  38 Li     3.435502    0.000000   14.576373    ( 0.0000,  0.0000,  0.0000)
  39 Li     6.870901    0.000000   14.576373    ( 0.0000,  0.0000,  0.0000)
  40 Li    -0.000010    1.983525   14.576373    ( 0.0000,  0.0000,  0.0000)
  41 Li     3.435389    1.983525   14.576373    ( 0.0000,  0.0000,  0.0000)
  42 Li     6.870891    1.983525   14.576373    ( 0.0000,  0.0000,  0.0000)
  43 Li    -1.717766    2.975377   14.576373    ( 0.0000,  0.0000,  0.0000)
  44 Li     1.717736    2.975377   14.576373    ( 0.0000,  0.0000,  0.0000)
  45 Li     5.153135    2.975377   14.576373    ( 0.0000,  0.0000,  0.0000)
  46 Li    -1.717776    4.958903   14.576373    ( 0.0000,  0.0000,  0.0000)
  47 Li     1.717623    4.958903   14.576373    ( 0.0000,  0.0000,  0.0000)
  48 Li     5.153125    4.958903   14.576373    ( 0.0000,  0.0000,  0.0000)
  49 Li    -3.435480    5.950666   14.576373    ( 0.0000,  0.0000,  0.0000)
  50 Li     0.000022    5.950666   14.576373    ( 0.0000,  0.0000,  0.0000)
  51 Li     3.435421    5.950666   14.576373    ( 0.0000,  0.0000,  0.0000)
  52 Li    -3.435490    7.934191   14.576373    ( 0.0000,  0.0000,  0.0000)
  53 Li    -0.000091    7.934191   14.576373    ( 0.0000,  0.0000,  0.0000)
  54 Li     3.435411    7.934191   14.576373    ( 0.0000,  0.0000,  0.0000)
  55 Li     1.716933    0.990355   16.539575    ( 0.0000,  0.0000,  0.0000)
  56 Li     5.153935    0.990309   16.539618    ( 0.0000,  0.0000,  0.0000)
  57 Li     8.588601    0.992155   16.538968    ( 0.0000,  0.0000,  0.0000)
  58 Li    -0.001983    3.966929   16.540287    ( 0.0000,  0.0000,  0.0000)
  59 Li     3.435377    3.966894   16.560332    ( 0.0000,  0.0000,  0.0000)
  60 Li     6.872784    3.966901   16.540664    ( 0.0000,  0.0000,  0.0000)
  61 Li    -1.717709    6.942531   16.538980    ( 0.0000,  0.0000,  0.0000)
  62 Li     1.716677    6.943960   16.542436    ( 0.0000,  0.0000,  0.0000)
  63 Li     5.154077    6.943982   16.543087    ( 0.0000,  0.0000,  0.0000)
  64 Li    -0.000566    0.001071   18.491167    ( 0.0000,  0.0000,  0.0000)
  65 Li     3.435488   -0.000283   18.494092    ( 0.0000,  0.0000,  0.0000)
  66 Li     6.871637    0.000979   18.491025    ( 0.0000,  0.0000,  0.0000)
  67 Li    -0.000438    1.983277   18.493786    ( 0.0000,  0.0000,  0.0000)
  68 Li     3.435351    1.982299   18.502414    ( 0.0000,  0.0000,  0.0000)
  69 Li     6.871111    1.983186   18.493848    ( 0.0000,  0.0000,  0.0000)
  70 Li    -1.717537    2.974651   18.490266    ( 0.0000,  0.0000,  0.0000)
  71 Li     1.716749    2.975088   18.503298    ( 0.0000,  0.0000,  0.0000)
  72 Li     5.154178    2.975150   18.503980    ( 0.0000,  0.0000,  0.0000)
  73 Li    -1.717776    4.959601   18.491017    ( 0.0000,  0.0000,  0.0000)
  74 Li     1.717105    4.959390   18.506691    ( 0.0000,  0.0000,  0.0000)
  75 Li     5.153465    4.959346   18.507400    ( 0.0000,  0.0000,  0.0000)
  76 Li    -3.434959    5.950606   18.495824    ( 0.0000,  0.0000,  0.0000)
  77 Li    -0.000454    5.950593   18.495049    ( 0.0000,  0.0000,  0.0000)
  78 Li     3.435530    5.951369   18.508561    ( 0.0000,  0.0000,  0.0000)
  79 Li    -3.434417    7.934171   18.490848    ( 0.0000,  0.0000,  0.0000)
  80 Li    -0.001241    7.934150   18.490446    ( 0.0000,  0.0000,  0.0000)
  81 Li     3.435268    7.934359   18.497812    ( 0.0000,  0.0000,  0.0000)
  82 Li     1.710919    0.978899   20.464529    ( 0.0000,  0.0000,  0.0000)
  83 Li     5.159790    0.977695   20.464239    ( 0.0000,  0.0000,  0.0000)
  84 Li     8.588552    0.992946   20.466160    ( 0.0000,  0.0000,  0.0000)
  85 Li    -0.023625    3.962454   20.462256    ( 0.0000,  0.0000,  0.0000)
  86 Li     3.431828    3.939841   20.560159    ( 0.0000,  0.0000,  0.0000)
  87 Li     6.899118    3.960948   20.461085    ( 0.0000,  0.0000,  0.0000)
  88 Li    -1.717260    6.942745   20.465978    ( 0.0000,  0.0000,  0.0000)
  89 Li     1.689033    6.975630   20.461146    ( 0.0000,  0.0000,  0.0000)
  90 Li     5.181111    6.979104   20.462766    ( 0.0000,  0.0000,  0.0000)
  91 Li     0.005454    0.001594   22.595512    ( 0.0000,  0.0000,  0.0000)
  92 Li     3.433425   -0.003501   22.590944    ( 0.0000,  0.0000,  0.0000)
  93 Li     6.862401    0.002168   22.594181    ( 0.0000,  0.0000,  0.0000)
  94 Li    -0.005455    1.978200   22.594975    ( 0.0000,  0.0000,  0.0000)
  95 Li     3.437498    1.982713   22.590808    ( 0.0000,  0.0000,  0.0000)
  96 Li     6.880899    1.977607   22.597826    ( 0.0000,  0.0000,  0.0000)
  97 Li    -1.718548    2.976166   22.605826    ( 0.0000,  0.0000,  0.0000)
  98 Li     1.706401    2.979231   22.576596    ( 0.0000,  0.0000,  0.0000)
  99 Li     5.167088    2.978760   22.567309    ( 0.0000,  0.0000,  0.0000)
 100 Li    -1.714793    4.950865   22.589272    ( 0.0000,  0.0000,  0.0000)
 101 Li     1.701779    4.977694   22.467940    ( 0.0000,  0.0000,  0.0000)
 102 Li     5.175236    4.976521   22.409405    ( 0.0000,  0.0000,  0.0000)
 103 Li    -3.420591    5.958682   22.632598    ( 0.0000,  0.0000,  0.0000)
 104 Li    -0.016326    5.958054   22.618175    ( 0.0000,  0.0000,  0.0000)
 105 Li     3.434669    5.982764   22.290468    ( 0.0000,  0.0000,  0.0000)
 106 Li    -3.434943    7.938385   22.603147    ( 0.0000,  0.0000,  0.0000)
 107 Li     0.001081    7.937100   22.604976    ( 0.0000,  0.0000,  0.0000)
 108 Li     3.436363    7.949830   22.656342    ( 0.0000,  0.0000,  0.0000)
 109 N      1.717695    0.991763   10.638094    ( 0.0000,  0.0000,  0.0000)
 110 N      5.153197    0.991763   10.638094    ( 0.0000,  0.0000,  0.0000)
 111 N      8.588596    0.991763   10.638094    ( 0.0000,  0.0000,  0.0000)
 112 N     -0.000071    3.967140   10.638094    ( 0.0000,  0.0000,  0.0000)
 113 N      3.435431    3.967140   10.638094    ( 0.0000,  0.0000,  0.0000)
 114 N      6.870830    3.967140   10.638094    ( 0.0000,  0.0000,  0.0000)
 115 N     -1.717786    6.942428   10.638094    ( 0.0000,  0.0000,  0.0000)
 116 N      1.717717    6.942428   10.638094    ( 0.0000,  0.0000,  0.0000)
 117 N      5.153115    6.942428   10.638094    ( 0.0000,  0.0000,  0.0000)
 118 N      1.717695    0.991763   14.562149    ( 0.0000,  0.0000,  0.0000)
 119 N      5.153197    0.991763   14.562149    ( 0.0000,  0.0000,  0.0000)
 120 N      8.588596    0.991763   14.562149    ( 0.0000,  0.0000,  0.0000)
 121 N     -0.000071    3.967140   14.562149    ( 0.0000,  0.0000,  0.0000)
 122 N      3.435431    3.967140   14.562149    ( 0.0000,  0.0000,  0.0000)
 123 N      6.870830    3.967140   14.562149    ( 0.0000,  0.0000,  0.0000)
 124 N     -1.717786    6.942428   14.562149    ( 0.0000,  0.0000,  0.0000)
 125 N      1.717717    6.942428   14.562149    ( 0.0000,  0.0000,  0.0000)
 126 N      5.153115    6.942428   14.562149    ( 0.0000,  0.0000,  0.0000)
 127 N      1.717190    0.990876   18.473549    ( 0.0000,  0.0000,  0.0000)
 128 N      5.153681    0.990796   18.473635    ( 0.0000,  0.0000,  0.0000)
 129 N      8.588585    0.991929   18.473521    ( 0.0000,  0.0000,  0.0000)
 130 N     -0.001322    3.967040   18.474735    ( 0.0000,  0.0000,  0.0000)
 131 N      3.435355    3.966613   18.536742    ( 0.0000,  0.0000,  0.0000)
 132 N      6.872182    3.966963   18.475514    ( 0.0000,  0.0000,  0.0000)
 133 N     -1.717732    6.942420   18.473624    ( 0.0000,  0.0000,  0.0000)
 134 N      1.716681    6.943805   18.480006    ( 0.0000,  0.0000,  0.0000)
 135 N      5.154063    6.943841   18.481860    ( 0.0000,  0.0000,  0.0000)
 136 N      1.721156    0.997675   22.381054    ( 0.0000,  0.0000,  0.0000)
 137 N      5.149851    0.997090   22.380742    ( 0.0000,  0.0000,  0.0000)
 138 N      8.588277    0.992020   22.385375    ( 0.0000,  0.0000,  0.0000)
 139 N     -0.001773    3.966457   22.376780    ( 0.0000,  0.0000,  0.0000)
 140 N      3.439442    3.997974   22.569307    ( 0.0000,  0.0000,  0.0000)
 141 N      6.875599    3.965989   22.374909    ( 0.0000,  0.0000,  0.0000)
 142 N     -1.717509    6.943772   22.384966    ( 0.0000,  0.0000,  0.0000)
 143 N      1.713833    6.948997   22.372840    ( 0.0000,  0.0000,  0.0000)
 144 N      5.155981    6.948014   22.374268    ( 0.0000,  0.0000,  0.0000)

Unit cell:
           periodic     x           y           z      points  spacing
  1. axis:    yes   10.306300    0.000000    0.000000    54     0.1653
  2. axis:    yes   -5.153194    8.925954    0.000000    54     0.1653
  3. axis:    yes    0.000000    0.000000   29.633400   147     0.2016

  Lengths:  10.306300  10.306700  29.633400
  Angles:   90.000000  90.000000 119.999001

Effective grid spacing dv^(1/3) = 0.1853

                     log10-error:    total        iterations:
           time      wfs    density  energy       fermi  poisson
iter:   1  23:07:08  -3.61         -503.108019    3             
iter:   2  23:07:20  -4.55  -2.70  -503.144239    4             
iter:   3  23:07:33  -5.23  -2.26  -503.106504    4             
iter:   4  23:07:46  -5.92  -2.99  -503.106598    2             
iter:   5  23:07:58  -5.26  -2.97  -503.105079    3             
iter:   6  23:08:11  -5.25  -3.17  -503.105801    3             
iter:   7  23:08:23  -6.15  -2.75  -503.104955    3             
iter:   8  23:08:36  -6.42  -3.22  -503.103710    3             
iter:   9  23:08:48  -6.31  -3.24  -503.103665    3             
