
  ___ ___ ___ _ _ _  
 |   |   |_  | | | | 
 | | | | | . | | | | 
 |__ |  _|___|_____|  20.1.0
 |___|_|             

User:   jywang@lbnode01
Date:   Sun Jul 25 04:26:14 2021
Arch:   x86_64
Pid:    237354
Python: 3.7.4
gpaw:   /home/jywang/intel/intelpython3/lib/python3.7/site-packages/gpaw
_gpaw:  /home/jywang/intel/intelpython3/lib/python3.7/site-packages/
        _gpaw.cpython-37m-x86_64-linux-gnu.so
ase:    /home/jywang/intel/intelpython3/lib/python3.7/site-packages/ase (version 3.19.0)
numpy:  /home/jywang/intel/intelpython3/lib/python3.7/site-packages/numpy (version 1.17.4)
scipy:  /home/jywang/intel/intelpython3/lib/python3.7/site-packages/scipy (version 1.3.2)
libxc:  4.3.4
units:  Angstrom and eV
cores: 32
OMP_NUM_THREADS: 1

Input parameters:
  convergence: {eigenstates: 1e-08}
  kpts: [3 3 1]
  mode: {ecut: 450.00000000000006,
         gammacentered: False,
         name: pw}
  occupations: {name: fermi-dirac,
                width: 0.01}
  random: True
  xc: PBE

System changes: positions, numbers, cell, pbc, initial_charges, initial_magmoms 

Initialize ...

Li-setup:
  name: Lithium
  id: 830b4218f175192f93f959cfc0aad614
  Z: 3
  valence: 1
  core: 2
  charge: 0.0
  file: /home/jywang/gpaw_paws/gpaw-setups-0.9.20000/Li.PBE.gz
  compensation charges: gauss, rc=0.33, lmax=2
  cutoffs: 1.91(filt), 2.55(core),
  valence states:
                energy  radius
    2s(1.00)    -2.874   1.058
    2p(0.00)    -1.090   1.058
    *s          24.337   1.058

  Using partial waves for Li as LCAO basis

N-setup:
  name: Nitrogen
  id: f7500608b86eaa90eef8b1d9a670dc53
  Z: 7
  valence: 5
  core: 2
  charge: 0.0
  file: /home/jywang/gpaw_paws/gpaw-setups-0.9.20000/N.PBE.gz
  compensation charges: gauss, rc=0.18, lmax=2
  cutoffs: 1.11(filt), 0.96(core),
  valence states:
                energy  radius
    2s(2.00)   -18.583   0.603
    2p(3.00)    -7.089   0.529
    *s           8.629   0.603
    *p          20.123   0.529
    *d           0.000   0.577

  Using partial waves for N as LCAO basis

Reference energy: -41801.699299

Spin-paired calculation

Occupation numbers:
  Fermi-Dirac: width=0.0100 eV

Convergence criteria:
  Maximum total energy change: 0.0005 eV / electron
  Maximum integral of absolute density change: 0.0001 electrons
  Maximum integral of absolute eigenstate change: 1e-08 eV^2
  Maximum number of iterations: 333

Symmetries present (total): 2

  ( 1  0  0)  ( 1  0  0)
  ( 0  1  0)  ( 0 -1  0)
  ( 0  0  1)  ( 0  0  1)

9 k-points: 3 x 3 x 1 Monkhorst-Pack grid
4 k-points in the irreducible part of the Brillouin zone
       k-points in crystal coordinates                weights
   0:     0.00000000    0.00000000    0.00000000          1/9
   1:     0.00000000    0.33333333    0.00000000          2/9
   2:     0.33333333    0.00000000    0.00000000          2/9
   3:     0.33333333    0.33333333    0.00000000          4/9

Wave functions: Plane wave expansion
  Cutoff energy: 450.000 eV
  Number of coefficients (min, max): 31479, 31570
  Pulay-stress correction: 0.000000 eV/Ang^3 (de/decut=0.000000)
  Using FFTW library
  ScaLapack parameters: grid=1x1, blocksize=None
  Wavefunction extrapolation:
    Improved wavefunction reuse through dual PAW basis 

Eigensolver
   Davidson(niter=2, smin=None, normalize=True) 

Densities:
  Coarse grid: 35*36*144 grid
  Fine grid: 70*72*288 grid
  Total Charge: 0.000000 

Density mixing:
  Method: separate
  Backend: pulay
  Linear mixing parameter: 0.05
  Mixing with 5 old densities
  Damping of long wave oscillations: 50 

Hamiltonian:
  XC and Coulomb potentials evaluated on a 70*72*288 grid
  Using the PBE Exchange-Correlation functional
 

XC parameters: PBE with 2 nearest neighbor stencil

Memory estimate:
  Process memory now: 159.25 MiB
  Calculator: 122.51 MiB
    Density: 11.46 MiB
      Arrays: 4.50 MiB
      Localized functions: 5.23 MiB
      Mixer: 1.73 MiB
    Hamiltonian: 3.07 MiB
      Arrays: 2.94 MiB
      XC: 0.00 MiB
      Poisson: 0.00 MiB
      vbar: 0.13 MiB
    Wavefunctions: 107.99 MiB
      Arrays psit_nG: 48.17 MiB
      Eigensolver: 52.11 MiB
      Projections: 0.11 MiB
      Projectors: 0.51 MiB
      PW-descriptor: 7.09 MiB

Total number of cores used: 32
Parallelization over k-points: 4
Domain decomposition: 1 x 1 x 8

Number of atoms: 80
Number of atomic orbitals: 320
Number of bands in calculation: 100
Number of valence electrons: 160
Bands to converge: occupied

... initialized

Initializing position-dependent things.

Density initialized from atomic densities
Creating initial wave functions:
  100 bands from LCAO basis set

     .----------------.  
    /|                |  
   / |                |  
  /  |                |  
 *   |                |  
 |   |                |  
 |   |                |  
 |   |                |  
 |   |                |  
 |   |                |  
 |   |                |  
 |   |                |  
 |   |                |  
 |   |                |  
 |   |                |  
 |   |                |  
 |   |                |  
 |   |                |  
 |   |                |  
 |   |                |  
 |   |                |  
 | Li|  Li Li    Li   |  
 |   | N        N     |  
 Li  |Li LiLi  Li   Li|  
 |   N Li     N Li    |  
 |   |   Li Li    Li Li  
 |   Li    N  Li    N |  
 |   | Li Li    Li Li |  
 |   |  LN Li    LN Li|  
 |   LiN      LiN     |  
 |   |Li Li    Li Li  |  
 |   N     Li N     Li|  
 |   | Li   Li  Li   Li  
 |   |   LiN      LiN |  
 |   LiLi Li  LiLi Li |  
 |   |   N Li     N Li|  
 |   Li-Li----Li-Li---.  
 |  /  N Li     N Li /   
 | /  Li   Li  Li   Li   
 |/  N        N    /     
 *-------Li-------Li     

Positions:
   0 Li     3.435097    0.000000    0.041480    ( 0.0000,  0.0000,  0.0000)
   1 Li     6.870647    0.000000    0.041480    ( 0.0000,  0.0000,  0.0000)
   2 Li     3.435097    3.658360    0.041480    ( 0.0000,  0.0000,  0.0000)
   3 Li     6.870647    3.658360    0.041480    ( 0.0000,  0.0000,  0.0000)
   4 N      1.717342    0.000000    1.033201    ( 0.0000,  0.0000,  0.0000)
   5 N      5.152892    0.000000    1.033201    ( 0.0000,  0.0000,  0.0000)
   6 Li     1.717342    1.829180    1.033201    ( 0.0000,  0.0000,  0.0000)
   7 Li     5.152892    1.829180    1.033201    ( 0.0000,  0.0000,  0.0000)
   8 N      1.717342    3.658360    1.033201    ( 0.0000,  0.0000,  0.0000)
   9 N      5.152892    3.658360    1.033201    ( 0.0000,  0.0000,  0.0000)
  10 Li     1.717342    5.487540    1.033201    ( 0.0000,  0.0000,  0.0000)
  11 Li     5.152892    5.487540    1.033201    ( 0.0000,  0.0000,  0.0000)
  12 Li     3.435138    0.000000    2.024922    ( 0.0000,  0.0000,  0.0000)
  13 Li     6.870688    0.000000    2.024922    ( 0.0000,  0.0000,  0.0000)
  14 Li     3.435138    3.658360    2.024922    ( 0.0000,  0.0000,  0.0000)
  15 Li     6.870688    3.658360    2.024922    ( 0.0000,  0.0000,  0.0000)
  16 Li     1.717431    0.000000    3.016701    ( 0.0000,  0.0000,  0.0000)
  17 Li     5.152981    0.000000    3.016701    ( 0.0000,  0.0000,  0.0000)
  18 Li     1.717431    3.658360    3.016701    ( 0.0000,  0.0000,  0.0000)
  19 Li     5.152981    3.658360    3.016701    ( 0.0000,  0.0000,  0.0000)
  20 N      3.435220    0.000000    4.008422    ( 0.0000,  0.0000,  0.0000)
  21 N      6.870770    0.000000    4.008422    ( 0.0000,  0.0000,  0.0000)
  22 Li     3.435220    1.829180    4.008422    ( 0.0000,  0.0000,  0.0000)
  23 Li     6.870770    1.829180    4.008422    ( 0.0000,  0.0000,  0.0000)
  24 N      3.435220    3.658360    4.008422    ( 0.0000,  0.0000,  0.0000)
  25 N      6.870770    3.658360    4.008422    ( 0.0000,  0.0000,  0.0000)
  26 Li     3.435220    5.487540    4.008422    ( 0.0000,  0.0000,  0.0000)
  27 Li     6.870770    5.487540    4.008422    ( 0.0000,  0.0000,  0.0000)
  28 Li     1.717466    0.000000    5.000143    ( 0.0000,  0.0000,  0.0000)
  29 Li     5.153016    0.000000    5.000143    ( 0.0000,  0.0000,  0.0000)
  30 Li     1.717466    3.658360    5.000143    ( 0.0000,  0.0000,  0.0000)
  31 Li     5.153016    3.658360    5.000143    ( 0.0000,  0.0000,  0.0000)
  32 Li     3.435310    0.000000    5.991893    ( 0.0000,  0.0000,  0.0000)
  33 Li     6.870860    0.000000    5.991893    ( 0.0000,  0.0000,  0.0000)
  34 Li     3.435310    3.658360    5.991893    ( 0.0000,  0.0000,  0.0000)
  35 Li     6.870860    3.658360    5.991893    ( 0.0000,  0.0000,  0.0000)
  36 N      1.717548    0.000000    6.983643    ( 0.0000,  0.0000,  0.0000)
  37 N      5.153098    0.000000    6.983643    ( 0.0000,  0.0000,  0.0000)
  38 Li     1.717548    1.829180    6.983643    ( 0.0000,  0.0000,  0.0000)
  39 Li     5.153098    1.829180    6.983643    ( 0.0000,  0.0000,  0.0000)
  40 N      1.717548    3.658360    6.983643    ( 0.0000,  0.0000,  0.0000)
  41 N      5.153098    3.658360    6.983643    ( 0.0000,  0.0000,  0.0000)
  42 Li     1.717548    5.487540    6.983643    ( 0.0000,  0.0000,  0.0000)
  43 Li     5.153098    5.487540    6.983643    ( 0.0000,  0.0000,  0.0000)
  44 Li     3.435344    0.000000    7.975364    ( 0.0000,  0.0000,  0.0000)
  45 Li     6.870894    0.000000    7.975364    ( 0.0000,  0.0000,  0.0000)
  46 Li     3.435344    3.658360    7.975364    ( 0.0000,  0.0000,  0.0000)
  47 Li     6.870894    3.658360    7.975364    ( 0.0000,  0.0000,  0.0000)
  48 Li     1.717638    0.000000    8.967114    ( 0.0000,  0.0000,  0.0000)
  49 Li     5.153188    0.000000    8.967114    ( 0.0000,  0.0000,  0.0000)
  50 Li     1.717638    3.658360    8.967114    ( 0.0000,  0.0000,  0.0000)
  51 Li     5.153188    3.658360    8.967114    ( 0.0000,  0.0000,  0.0000)
  52 N      3.435426    0.000000    9.958835    ( 0.0000,  0.0000,  0.0000)
  53 N      6.870976    0.000000    9.958835    ( 0.0000,  0.0000,  0.0000)
  54 Li     3.435426    1.829180    9.958835    ( 0.0000,  0.0000,  0.0000)
  55 Li     6.870976    1.829180    9.958835    ( 0.0000,  0.0000,  0.0000)
  56 N      3.435426    3.658360    9.958835    ( 0.0000,  0.0000,  0.0000)
  57 N      6.870976    3.658360    9.958835    ( 0.0000,  0.0000,  0.0000)
  58 Li     3.435426    5.487540    9.958835    ( 0.0000,  0.0000,  0.0000)
  59 Li     6.870976    5.487540    9.958835    ( 0.0000,  0.0000,  0.0000)
  60 Li     1.717672    0.000000   10.950585    ( 0.0000,  0.0000,  0.0000)
  61 Li     5.153222    0.000000   10.950585    ( 0.0000,  0.0000,  0.0000)
  62 Li     1.717672    3.658360   10.950585    ( 0.0000,  0.0000,  0.0000)
  63 Li     5.153222    3.658360   10.950585    ( 0.0000,  0.0000,  0.0000)
  64 Li     3.435516    0.000000   11.942335    ( 0.0000,  0.0000,  0.0000)
  65 Li     6.871066    0.000000   11.942335    ( 0.0000,  0.0000,  0.0000)
  66 Li     3.435516    3.658360   11.942335    ( 0.0000,  0.0000,  0.0000)
  67 Li     6.871066    3.658360   11.942335    ( 0.0000,  0.0000,  0.0000)
  68 N      1.717754    0.000000   12.934056    ( 0.0000,  0.0000,  0.0000)
  69 N      5.153304    0.000000   12.934056    ( 0.0000,  0.0000,  0.0000)
  70 Li     1.717754    1.829180   12.934056    ( 0.0000,  0.0000,  0.0000)
  71 Li     5.153304    1.829180   12.934056    ( 0.0000,  0.0000,  0.0000)
  72 N      1.717754    3.658360   12.934056    ( 0.0000,  0.0000,  0.0000)
  73 N      5.153304    3.658360   12.934056    ( 0.0000,  0.0000,  0.0000)
  74 Li     1.717754    5.487540   12.934056    ( 0.0000,  0.0000,  0.0000)
  75 Li     5.153304    5.487540   12.934056    ( 0.0000,  0.0000,  0.0000)
  76 Li     0.000000    0.000000   13.925806    ( 0.0000,  0.0000,  0.0000)
  77 Li     3.435550    0.000000   13.925806    ( 0.0000,  0.0000,  0.0000)
  78 Li     0.000000    3.658360   13.925806    ( 0.0000,  0.0000,  0.0000)
  79 Li     3.435550    3.658360   13.925806    ( 0.0000,  0.0000,  0.0000)

Unit cell:
           periodic     x           y           z      points  spacing
  1. axis:    yes    6.871100    0.000000    0.000000    35     0.1963
  2. axis:    yes    0.000000    7.316720    0.000000    36     0.2032
  3. axis:    yes    0.000000    0.000000   28.925800   144     0.2009

  Lengths:   6.871100   7.316720  28.925800
  Angles:   90.000000  90.000000  90.000000

Effective grid spacing dv^(1/3) = 0.2001

                     log10-error:    total        iterations:
           time      wfs    density  energy       fermi  poisson
iter:   1  04:26:41                -335.032801    0             
iter:   2  04:26:48  -0.99  -0.50  -320.698980    0             
iter:   3  04:26:56  -0.35  -0.55  -286.898803    0             
iter:   4  04:27:04  -0.65  -0.83  -283.078671    2             
iter:   5  04:27:12  -1.32  -1.02  -281.792844    0             
iter:   6  04:27:19  -1.24  -1.26  -282.281891    23            
iter:   7  04:27:27  -2.01  -1.47  -282.036468    8             
iter:   8  04:27:34  -1.45  -1.46  -281.367088    10            
iter:   9  04:27:42  -1.92  -1.78  -281.371413    0             
iter:  10  04:27:49  -3.01  -1.72  -281.335358    0             
iter:  11  04:27:57  -2.14  -1.83  -281.250906    0             
iter:  12  04:28:04  -3.11  -2.03  -281.182119    0             
iter:  13  04:28:12  -3.23  -2.46  -281.188625    0             
iter:  14  04:28:20  -3.55  -2.36  -281.180656    0             
iter:  15  04:28:27  -4.91  -2.63  -281.179353    0             
iter:  16  04:28:35  -4.91  -2.68  -281.178876    0             
iter:  17  04:28:42  -3.89  -2.71  -281.183271    0             
iter:  18  04:28:50  -4.80  -2.64  -281.179767    0             
iter:  19  04:28:57  -5.90  -2.85  -281.180599    0             
iter:  20  04:29:05  -4.33  -2.80  -281.179322    0             
iter:  21  04:29:12  -5.37  -2.96  -281.179056    0             
iter:  22  04:29:20  -5.84  -3.12  -281.179099    0             
iter:  23  04:29:27  -5.17  -3.14  -281.178896    0             
iter:  24  04:29:35  -6.12  -3.54  -281.178796    0             
iter:  25  04:29:42  -6.49  -3.78  -281.178787    0             
iter:  26  04:29:50  -7.08  -3.89  -281.178781    0             
iter:  27  04:29:58  -7.66  -4.04  -281.178782    0             
iter:  28  04:30:05  -8.13  -4.09  -281.178782    0             

Converged after 28 iterations.

Dipole moment: (0.101341, -0.000000, -11.414193) |e|*Ang

Energy contributions relative to reference atoms: (reference = -41801.699299)

Kinetic:       +396.001395
Potential:     -272.446753
External:        +0.000000
XC:            -402.809502
Entropy (-ST):   -0.000000
Local:           -1.923922
--------------------------
Free energy:   -281.178782
Extrapolated:  -281.178782

Fermi level: 0.45476

Showing only first 2 kpts
 Kpt  Band  Eigenvalues  Occupancy
  0    78     -0.29360    0.22222
  0    79     -0.26758    0.22222
  0    80      0.84818    0.00000
  0    81      0.92150    0.00000

  1    78     -0.39662    0.44444
  1    79     -0.34155    0.44444
  1    80      1.31945    0.00000
  1    81      1.36543    0.00000


Gap: 1.116 eV
Transition (v -> c):
  (s=0, k=0, n=79, [0.00, 0.00, 0.00]) -> (s=0, k=0, n=80, [0.00, 0.00, 0.00])

Forces in eV/Ang:
  0 Li    0.00011    0.00000   -0.67620
  1 Li    0.00010    0.00000   -0.67574
  2 Li    0.00011    0.00000   -0.67620
  3 Li    0.00010    0.00000   -0.67574
  4 N     0.02539    0.00000   -0.34689
  5 N    -0.02527    0.00000   -0.34689
  6 Li   -0.00018    0.00000   -0.25150
  7 Li    0.00013    0.00000   -0.25150
  8 N     0.02539    0.00000   -0.34689
  9 N    -0.02527    0.00000   -0.34689
 10 Li   -0.00018   -0.00000   -0.25150
 11 Li    0.00013   -0.00000   -0.25150
 12 Li    0.00030    0.00000    0.01310
 13 Li    0.00029    0.00000    0.01250
 14 Li    0.00030    0.00000    0.01310
 15 Li    0.00029    0.00000    0.01250
 16 Li   -0.00062    0.00000    0.02066
 17 Li   -0.00001    0.00000    0.02067
 18 Li   -0.00062    0.00000    0.02066
 19 Li   -0.00001    0.00000    0.02067
 20 N    -0.00022    0.00000    0.02860
 21 N     0.00032    0.00000    0.02856
 22 Li    0.00001    0.00000   -0.01967
 23 Li    0.00000   -0.00000   -0.01967
 24 N    -0.00022    0.00000    0.02860
 25 N     0.00032    0.00000    0.02856
 26 Li    0.00001   -0.00000   -0.01967
 27 Li    0.00000    0.00000   -0.01967
 28 Li   -0.00003    0.00000   -0.00379
 29 Li    0.00060    0.00000   -0.00380
 30 Li   -0.00003    0.00000   -0.00379
 31 Li    0.00060    0.00000   -0.00380
 32 Li   -0.00032    0.00000   -0.00357
 33 Li   -0.00033    0.00000   -0.00297
 34 Li   -0.00032    0.00000   -0.00357
 35 Li   -0.00033    0.00000   -0.00297
 36 N     0.02531    0.00000    0.05048
 37 N    -0.02526    0.00000    0.05048
 38 Li   -0.00017    0.00000    0.00007
 39 Li    0.00019    0.00000    0.00007
 40 N     0.02531    0.00000    0.05048
 41 N    -0.02526    0.00000    0.05048
 42 Li   -0.00017   -0.00000    0.00007
 43 Li    0.00019   -0.00000    0.00007
 44 Li    0.00029    0.00000    0.00288
 45 Li    0.00029    0.00000    0.00231
 46 Li    0.00029    0.00000    0.00288
 47 Li    0.00029    0.00000    0.00231
 48 Li   -0.00064    0.00000    0.00348
 49 Li   -0.00001    0.00000    0.00348
 50 Li   -0.00064    0.00000    0.00348
 51 Li   -0.00001    0.00000    0.00348
 52 N    -0.00007    0.00000    0.01817
 53 N     0.00013    0.00000    0.01817
 54 Li    0.00001   -0.00000    0.01974
 55 Li    0.00001   -0.00000    0.01974
 56 N    -0.00007    0.00000    0.01817
 57 N     0.00013    0.00000    0.01817
 58 Li    0.00001    0.00000    0.01974
 59 Li    0.00001    0.00000    0.01974
 60 Li   -0.00003    0.00000   -0.02138
 61 Li    0.00059    0.00000   -0.02139
 62 Li   -0.00003    0.00000   -0.02138
 63 Li    0.00059    0.00000   -0.02139
 64 Li   -0.00033    0.00000   -0.01273
 65 Li   -0.00033    0.00000   -0.01217
 66 Li   -0.00033    0.00000   -0.01273
 67 Li   -0.00033    0.00000   -0.01217
 68 N     0.02519    0.00000    0.27045
 69 N    -0.02527    0.00000    0.27045
 70 Li   -0.00012    0.00000    0.25147
 71 Li    0.00019    0.00000    0.25147
 72 N     0.02519    0.00000    0.27045
 73 N    -0.02527    0.00000    0.27045
 74 Li   -0.00012   -0.00000    0.25147
 75 Li    0.00019   -0.00000    0.25147
 76 Li   -0.00011    0.00000    0.67531
 77 Li   -0.00011    0.00000    0.67578
 78 Li   -0.00011    0.00000    0.67531
 79 Li   -0.00011    0.00000    0.67578

System changes: positions 

Initializing position-dependent things.

Density initialized from wave functions
     .----------------.  
    /|                |  
   / |                |  
  /  |                |  
 *   |                |  
 |   |                |  
 |   |                |  
 |   |                |  
 |   |                |  
 |   |                |  
 |   |                |  
 |   |                |  
 |   |                |  
 |   |                |  
 |   |                |  
 |   |                |  
 |   |                |  
 |   |                |  
 |   |                |  
 |   |                |  
 |   |                |  
 |   |  Li Li    Li Li|  
 |   | N        N     |  
 |   |Li LiLi  Li LiLi|  
 |   N Li     N Li    |  
 |   |   Li Li    Li Li  
 |   Li    N  Li    N |  
 |   | Li Li    Li Li |  
 |   |  LN Li    LN Li|  
 |   LiN      LiN     |  
 |   |Li Li    Li Li  |  
 |   N     Li N     Li|  
 |   | Li   Li  Li   Li  
 |   |   LiN      LiN |  
 |   LiLi Li  LiLi Li |  
 |   |   N Li     N Li|  
 |   Li-Li----Li-Li---.  
 |  /  N Li     N Li /   
 | /  Li   Li  Li   Li   
 |/  N        N    /     
 *-------Li-------Li     

Positions:
   0 Li     3.435098    0.000000    0.031820    ( 0.0000,  0.0000,  0.0000)
   1 Li     6.870648    0.000000    0.031826    ( 0.0000,  0.0000,  0.0000)
   2 Li     3.435098    3.658360    0.031820    ( 0.0000,  0.0000,  0.0000)
   3 Li     6.870648    3.658360    0.031826    ( 0.0000,  0.0000,  0.0000)
   4 N      1.717705    0.000000    1.028245    ( 0.0000,  0.0000,  0.0000)
   5 N      5.152531    0.000000    1.028245    ( 0.0000,  0.0000,  0.0000)
   6 Li     1.717339    1.829180    1.029608    ( 0.0000,  0.0000,  0.0000)
   7 Li     5.152894    1.829180    1.029608    ( 0.0000,  0.0000,  0.0000)
   8 N      1.717705    3.658360    1.028245    ( 0.0000,  0.0000,  0.0000)
   9 N      5.152531    3.658360    1.028245    ( 0.0000,  0.0000,  0.0000)
  10 Li     1.717339    5.487540    1.029608    ( 0.0000,  0.0000,  0.0000)
  11 Li     5.152894    5.487540    1.029608    ( 0.0000,  0.0000,  0.0000)
  12 Li     3.435142    0.000000    2.025109    ( 0.0000,  0.0000,  0.0000)
  13 Li     6.870692    0.000000    2.025100    ( 0.0000,  0.0000,  0.0000)
  14 Li     3.435142    3.658360    2.025109    ( 0.0000,  0.0000,  0.0000)
  15 Li     6.870692    3.658360    2.025100    ( 0.0000,  0.0000,  0.0000)
  16 Li     1.717423    0.000000    3.016996    ( 0.0000,  0.0000,  0.0000)
  17 Li     5.152981    0.000000    3.016996    ( 0.0000,  0.0000,  0.0000)
  18 Li     1.717423    3.658360    3.016996    ( 0.0000,  0.0000,  0.0000)
  19 Li     5.152981    3.658360    3.016996    ( 0.0000,  0.0000,  0.0000)
  20 N      3.435217    0.000000    4.008830    ( 0.0000,  0.0000,  0.0000)
  21 N      6.870775    0.000000    4.008830    ( 0.0000,  0.0000,  0.0000)
  22 Li     3.435220    1.829180    4.008141    ( 0.0000,  0.0000,  0.0000)
  23 Li     6.870770    1.829180    4.008141    ( 0.0000,  0.0000,  0.0000)
  24 N      3.435217    3.658360    4.008830    ( 0.0000,  0.0000,  0.0000)
  25 N      6.870775    3.658360    4.008830    ( 0.0000,  0.0000,  0.0000)
  26 Li     3.435220    5.487540    4.008141    ( 0.0000,  0.0000,  0.0000)
  27 Li     6.870770    5.487540    4.008141    ( 0.0000,  0.0000,  0.0000)
  28 Li     1.717465    0.000000    5.000089    ( 0.0000,  0.0000,  0.0000)
  29 Li     5.153024    0.000000    5.000088    ( 0.0000,  0.0000,  0.0000)
  30 Li     1.717465    3.658360    5.000089    ( 0.0000,  0.0000,  0.0000)
  31 Li     5.153024    3.658360    5.000088    ( 0.0000,  0.0000,  0.0000)
  32 Li     3.435305    0.000000    5.991842    ( 0.0000,  0.0000,  0.0000)
  33 Li     6.870855    0.000000    5.991850    ( 0.0000,  0.0000,  0.0000)
  34 Li     3.435305    3.658360    5.991842    ( 0.0000,  0.0000,  0.0000)
  35 Li     6.870855    3.658360    5.991850    ( 0.0000,  0.0000,  0.0000)
  36 N      1.717910    0.000000    6.984364    ( 0.0000,  0.0000,  0.0000)
  37 N      5.152737    0.000000    6.984364    ( 0.0000,  0.0000,  0.0000)
  38 Li     1.717546    1.829180    6.983644    ( 0.0000,  0.0000,  0.0000)
  39 Li     5.153101    1.829180    6.983644    ( 0.0000,  0.0000,  0.0000)
  40 N      1.717910    3.658360    6.984364    ( 0.0000,  0.0000,  0.0000)
  41 N      5.152737    3.658360    6.984364    ( 0.0000,  0.0000,  0.0000)
  42 Li     1.717546    5.487540    6.983644    ( 0.0000,  0.0000,  0.0000)
  43 Li     5.153101    5.487540    6.983644    ( 0.0000,  0.0000,  0.0000)
  44 Li     3.435348    0.000000    7.975405    ( 0.0000,  0.0000,  0.0000)
  45 Li     6.870898    0.000000    7.975397    ( 0.0000,  0.0000,  0.0000)
  46 Li     3.435348    3.658360    7.975405    ( 0.0000,  0.0000,  0.0000)
  47 Li     6.870898    3.658360    7.975397    ( 0.0000,  0.0000,  0.0000)
  48 Li     1.717628    0.000000    8.967163    ( 0.0000,  0.0000,  0.0000)
  49 Li     5.153187    0.000000    8.967163    ( 0.0000,  0.0000,  0.0000)
  50 Li     1.717628    3.658360    8.967163    ( 0.0000,  0.0000,  0.0000)
  51 Li     5.153187    3.658360    8.967163    ( 0.0000,  0.0000,  0.0000)
  52 N      3.435425    0.000000    9.959094    ( 0.0000,  0.0000,  0.0000)
  53 N      6.870978    0.000000    9.959094    ( 0.0000,  0.0000,  0.0000)
  54 Li     3.435426    1.829180    9.959117    ( 0.0000,  0.0000,  0.0000)
  55 Li     6.870976    1.829180    9.959117    ( 0.0000,  0.0000,  0.0000)
  56 N      3.435425    3.658360    9.959094    ( 0.0000,  0.0000,  0.0000)
  57 N      6.870978    3.658360    9.959094    ( 0.0000,  0.0000,  0.0000)
  58 Li     3.435426    5.487540    9.959117    ( 0.0000,  0.0000,  0.0000)
  59 Li     6.870976    5.487540    9.959117    ( 0.0000,  0.0000,  0.0000)
  60 Li     1.717671    0.000000   10.950279    ( 0.0000,  0.0000,  0.0000)
  61 Li     5.153230    0.000000   10.950279    ( 0.0000,  0.0000,  0.0000)
  62 Li     1.717671    3.658360   10.950279    ( 0.0000,  0.0000,  0.0000)
  63 Li     5.153230    3.658360   10.950279    ( 0.0000,  0.0000,  0.0000)
  64 Li     3.435511    0.000000   11.942153    ( 0.0000,  0.0000,  0.0000)
  65 Li     6.871061    0.000000   11.942161    ( 0.0000,  0.0000,  0.0000)
  66 Li     3.435511    3.658360   11.942153    ( 0.0000,  0.0000,  0.0000)
  67 Li     6.871061    3.658360   11.942161    ( 0.0000,  0.0000,  0.0000)
  68 N      1.718114    0.000000   12.937919    ( 0.0000,  0.0000,  0.0000)
  69 N      5.152943    0.000000   12.937919    ( 0.0000,  0.0000,  0.0000)
  70 Li     1.717753    1.829180   12.937648    ( 0.0000,  0.0000,  0.0000)
  71 Li     5.153307    1.829180   12.937648    ( 0.0000,  0.0000,  0.0000)
  72 N      1.718114    3.658360   12.937919    ( 0.0000,  0.0000,  0.0000)
  73 N      5.152943    3.658360   12.937919    ( 0.0000,  0.0000,  0.0000)
  74 Li     1.717753    5.487540   12.937648    ( 0.0000,  0.0000,  0.0000)
  75 Li     5.153307    5.487540   12.937648    ( 0.0000,  0.0000,  0.0000)
  76 Li    -0.000002    0.000000   13.935453    ( 0.0000,  0.0000,  0.0000)
  77 Li     3.435548    0.000000   13.935460    ( 0.0000,  0.0000,  0.0000)
  78 Li    -0.000002    3.658360   13.935453    ( 0.0000,  0.0000,  0.0000)
  79 Li     3.435548    3.658360   13.935460    ( 0.0000,  0.0000,  0.0000)

Unit cell:
           periodic     x           y           z      points  spacing
  1. axis:    yes    6.871100    0.000000    0.000000    35     0.1963
  2. axis:    yes    0.000000    7.316720    0.000000    36     0.2032
  3. axis:    yes    0.000000    0.000000   28.925800   144     0.2009

  Lengths:   6.871100   7.316720  28.925800
  Angles:   90.000000  90.000000  90.000000

Effective grid spacing dv^(1/3) = 0.2001

                     log10-error:    total        iterations:
           time      wfs    density  energy       fermi  poisson
iter:   1  04:30:23  -3.42         -281.255755    0             
iter:   2  04:30:31  -4.81  -2.70  -281.252645    0             
iter:   3  04:30:38  -4.09  -2.78  -281.248304    0             
iter:   4  04:30:46  -4.67  -3.07  -281.248529    0             
iter:   5  04:30:54  -5.51  -3.12  -281.247571    0             
iter:   6  04:31:01  -5.47  -3.42  -281.247382    0             
iter:   7  04:31:08  -5.35  -3.65  -281.247632    0             
iter:   8  04:31:16  -6.02  -3.36  -281.247380    0             
iter:   9  04:31:24  -6.02  -3.81  -281.247392    0             
iter:  10  04:31:34  -6.28  -3.86  -281.247366    0             
iter:  11  04:31:41  -6.74  -3.99  -281.247356    0             
iter:  12  04:31:48  -7.85  -4.53  -281.247356    0             
iter:  13  04:31:55  -8.13  -4.59  -281.247357    0             

Converged after 13 iterations.

Dipole moment: (0.100428, -0.000000, -10.142216) |e|*Ang

Energy contributions relative to reference atoms: (reference = -41801.699299)

Kinetic:       +394.734261
Potential:     -271.680338
External:        +0.000000
XC:            -402.428581
Entropy (-ST):   -0.000000
Local:           -1.872698
--------------------------
Free energy:   -281.247357
Extrapolated:  -281.247357

Fermi level: 0.45476

Showing only first 2 kpts
 Kpt  Band  Eigenvalues  Occupancy
  0    78     -0.29389    0.22222
  0    79     -0.26420    0.22222
  0    80      0.84476    0.00000
  0    81      0.93038    0.00000

  1    78     -0.39721    0.44444
  1    79     -0.33807    0.44444
  1    80      1.31469    0.00000
  1    81      1.36092    0.00000


Gap: 1.109 eV
Transition (v -> c):
  (s=0, k=0, n=79, [0.00, 0.00, 0.00]) -> (s=0, k=0, n=80, [0.00, 0.00, 0.00])

Forces in eV/Ang:
  0 Li    0.00010    0.00000   -0.62848
  1 Li    0.00009    0.00000   -0.62697
  2 Li    0.00010    0.00000   -0.62848
  3 Li    0.00009    0.00000   -0.62697
  4 N     0.01999    0.00000   -0.31500
  5 N    -0.01983    0.00000   -0.31499
  6 Li    0.00037   -0.00000   -0.25300
  7 Li   -0.00040    0.00000   -0.25300
  8 N     0.01999    0.00000   -0.31500
  9 N    -0.01983    0.00000   -0.31499
 10 Li    0.00037    0.00000   -0.25300
 11 Li   -0.00040   -0.00000   -0.25300
 12 Li    0.00023    0.00000   -0.03821
 13 Li    0.00024    0.00000   -0.03983
 14 Li    0.00023    0.00000   -0.03821
 15 Li    0.00024    0.00000   -0.03983
 16 Li   -0.00008    0.00000   -0.00018
 17 Li   -0.00042    0.00000   -0.00017
 18 Li   -0.00008    0.00000   -0.00018
 19 Li   -0.00042    0.00000   -0.00017
 20 N    -0.00017    0.00000    0.02160
 21 N     0.00024    0.00000    0.02166
 22 Li    0.00000    0.00000   -0.01919
 23 Li    0.00001    0.00000   -0.01920
 24 N    -0.00017    0.00000    0.02160
 25 N     0.00024    0.00000    0.02166
 26 Li    0.00000   -0.00000   -0.01919
 27 Li    0.00001   -0.00000   -0.01920
 28 Li    0.00044    0.00000    0.00214
 29 Li    0.00003    0.00000    0.00212
 30 Li    0.00044    0.00000    0.00214
 31 Li    0.00003    0.00000    0.00212
 32 Li   -0.00026    0.00000    0.00006
 33 Li   -0.00026    0.00000    0.00179
 34 Li   -0.00026    0.00000    0.00006
 35 Li   -0.00026    0.00000    0.00179
 36 N     0.01965    0.00000    0.03907
 37 N    -0.01961    0.00000    0.03906
 38 Li    0.00037    0.00000    0.00159
 39 Li   -0.00036   -0.00000    0.00159
 40 N     0.01965    0.00000    0.03907
 41 N    -0.01961    0.00000    0.03906
 42 Li    0.00037   -0.00000    0.00159
 43 Li   -0.00036    0.00000    0.00159
 44 Li    0.00023    0.00000    0.00607
 45 Li    0.00023    0.00000    0.00435
 46 Li    0.00023    0.00000    0.00607
 47 Li    0.00023    0.00000    0.00435
 48 Li   -0.00006    0.00000    0.00449
 49 Li   -0.00046    0.00000    0.00450
 50 Li   -0.00006    0.00000    0.00449
 51 Li   -0.00046    0.00000    0.00450
 52 N    -0.00006    0.00000    0.01360
 53 N     0.00010    0.00000    0.01348
 54 Li    0.00001    0.00000    0.02060
 55 Li    0.00001    0.00000    0.02061
 56 N    -0.00006    0.00000    0.01360
 57 N     0.00010    0.00000    0.01348
 58 Li    0.00001   -0.00000    0.02060
 59 Li    0.00001   -0.00000    0.02061
 60 Li    0.00038    0.00000   -0.00208
 61 Li    0.00006    0.00000   -0.00208
 62 Li    0.00038    0.00000   -0.00208
 63 Li    0.00006    0.00000   -0.00208
 64 Li   -0.00027    0.00000    0.03712
 65 Li   -0.00026    0.00000    0.03871
 66 Li   -0.00027    0.00000    0.03712
 67 Li   -0.00026    0.00000    0.03871
 68 N     0.01976    0.00000    0.27404
 69 N    -0.01989    0.00000    0.27404
 70 Li    0.00041   -0.00000    0.25136
 71 Li   -0.00036    0.00000    0.25136
 72 N     0.01976    0.00000    0.27404
 73 N    -0.01989    0.00000    0.27404
 74 Li    0.00041    0.00000    0.25136
 75 Li   -0.00036   -0.00000    0.25136
 76 Li   -0.00010    0.00000    0.62322
 77 Li   -0.00010    0.00000    0.62472
 78 Li   -0.00010    0.00000    0.62322
 79 Li   -0.00010    0.00000    0.62472

System changes: positions 

Initializing position-dependent things.

Density initialized from wave functions
     .----------------.  
    /|                |  
   / |     Li       Li|  
  /  |                |  
 *   |   Li       Li  |  
 |   |                |  
 |   |                |  
 |   |                |  
 |   |                |  
 |   |                |  
 |   |                |  
 |   |                |  
 |   |                |  
 |   |                |  
 |   |                |  
 |   |                |  
 |   |                |  
 |   |                |  
 |   |                |  
 |   |                |  
 |   |                |  
 |   |  Li Li    Li Li|  
 |   | N        N     |  
 |   |Li LiLi  Li LiLi|  
 |   N Li     N Li    |  
 |   |   Li Li    Li Li  
 |   Li    N  Li    N |  
 |   | Li Li    Li Li |  
 |   |  LN Li    LN Li|  
 |   LiN      LiN     |  
 |   |Li Li    Li Li  |  
 |   N     Li N     Li|  
 |   | Li   Li  Li   Li  
 |   |   LiN      LiN |  
 |   LiLi Li  LiLi Li |  
 |   |   N Li     N Li|  
 |   Li-Li----Li-Li---.  
 |  /  N Li     N Li /   
 | /  Li       Li   /    
 |/  N        N    /     
 *----------------*      

Positions:
   0 Li     3.435104    0.000000   -0.008180    ( 0.0000,  0.0000,  0.0000)
   1 Li     6.870654    0.000000   -0.008084    ( 0.0000,  0.0000,  0.0000)
   2 Li     3.435104    3.658360   -0.008180    ( 0.0000,  0.0000,  0.0000)
   3 Li     6.870654    3.658360   -0.008084    ( 0.0000,  0.0000,  0.0000)
   4 N      1.718997    0.000000    1.008156    ( 0.0000,  0.0000,  0.0000)
   5 N      5.151249    0.000000    1.008156    ( 0.0000,  0.0000,  0.0000)
   6 Li     1.717360    1.829180    1.013612    ( 0.0000,  0.0000,  0.0000)
   7 Li     5.152871    1.829180    1.013612    ( 0.0000,  0.0000,  0.0000)
   8 N      1.718997    3.658360    1.008156    ( 0.0000,  0.0000,  0.0000)
   9 N      5.151249    3.658360    1.008156    ( 0.0000,  0.0000,  0.0000)
  10 Li     1.717360    5.487540    1.013612    ( 0.0000,  0.0000,  0.0000)
  11 Li     5.152871    5.487540    1.013612    ( 0.0000,  0.0000,  0.0000)
  12 Li     3.435157    0.000000    2.022957    ( 0.0000,  0.0000,  0.0000)
  13 Li     6.870707    0.000000    2.022851    ( 0.0000,  0.0000,  0.0000)
  14 Li     3.435157    3.658360    2.022957    ( 0.0000,  0.0000,  0.0000)
  15 Li     6.870707    3.658360    2.022851    ( 0.0000,  0.0000,  0.0000)
  16 Li     1.717415    0.000000    3.017092    ( 0.0000,  0.0000,  0.0000)
  17 Li     5.152957    0.000000    3.017093    ( 0.0000,  0.0000,  0.0000)
  18 Li     1.717415    3.658360    3.017092    ( 0.0000,  0.0000,  0.0000)
  19 Li     5.152957    3.658360    3.017093    ( 0.0000,  0.0000,  0.0000)
  20 N      3.435206    0.000000    4.010233    ( 0.0000,  0.0000,  0.0000)
  21 N      6.870790    0.000000    4.010236    ( 0.0000,  0.0000,  0.0000)
  22 Li     3.435220    1.829180    4.006924    ( 0.0000,  0.0000,  0.0000)
  23 Li     6.870771    1.829180    4.006924    ( 0.0000,  0.0000,  0.0000)
  24 N      3.435206    3.658360    4.010233    ( 0.0000,  0.0000,  0.0000)
  25 N      6.870790    3.658360    4.010236    ( 0.0000,  0.0000,  0.0000)
  26 Li     3.435220    5.487540    4.006924    ( 0.0000,  0.0000,  0.0000)
  27 Li     6.870771    5.487540    4.006924    ( 0.0000,  0.0000,  0.0000)
  28 Li     1.717491    0.000000    5.000193    ( 0.0000,  0.0000,  0.0000)
  29 Li     5.153029    0.000000    5.000192    ( 0.0000,  0.0000,  0.0000)
  30 Li     1.717491    3.658360    5.000193    ( 0.0000,  0.0000,  0.0000)
  31 Li     5.153029    3.658360    5.000192    ( 0.0000,  0.0000,  0.0000)
  32 Li     3.435288    0.000000    5.991827    ( 0.0000,  0.0000,  0.0000)
  33 Li     6.870838    0.000000    5.991939    ( 0.0000,  0.0000,  0.0000)
  34 Li     3.435288    3.658360    5.991827    ( 0.0000,  0.0000,  0.0000)
  35 Li     6.870838    3.658360    5.991939    ( 0.0000,  0.0000,  0.0000)
  36 N      1.719182    0.000000    6.986894    ( 0.0000,  0.0000,  0.0000)
  37 N      5.151468    0.000000    6.986894    ( 0.0000,  0.0000,  0.0000)
  38 Li     1.717566    1.829180    6.983737    ( 0.0000,  0.0000,  0.0000)
  39 Li     5.153081    1.829180    6.983737    ( 0.0000,  0.0000,  0.0000)
  40 N      1.719182    3.658360    6.986894    ( 0.0000,  0.0000,  0.0000)
  41 N      5.151468    3.658360    6.986894    ( 0.0000,  0.0000,  0.0000)
  42 Li     1.717566    5.487540    6.983737    ( 0.0000,  0.0000,  0.0000)
  43 Li     5.153081    5.487540    6.983737    ( 0.0000,  0.0000,  0.0000)
  44 Li     3.435363    0.000000    7.975773    ( 0.0000,  0.0000,  0.0000)
  45 Li     6.870913    0.000000    7.975662    ( 0.0000,  0.0000,  0.0000)
  46 Li     3.435363    3.658360    7.975773    ( 0.0000,  0.0000,  0.0000)
  47 Li     6.870913    3.658360    7.975662    ( 0.0000,  0.0000,  0.0000)
  48 Li     1.717622    0.000000    8.967442    ( 0.0000,  0.0000,  0.0000)
  49 Li     5.153161    0.000000    8.967443    ( 0.0000,  0.0000,  0.0000)
  50 Li     1.717622    3.658360    8.967442    ( 0.0000,  0.0000,  0.0000)
  51 Li     5.153161    3.658360    8.967443    ( 0.0000,  0.0000,  0.0000)
  52 N      3.435422    0.000000    9.959978    ( 0.0000,  0.0000,  0.0000)
  53 N      6.870984    0.000000    9.959971    ( 0.0000,  0.0000,  0.0000)
  54 Li     3.435427    1.829180    9.960415    ( 0.0000,  0.0000,  0.0000)
  55 Li     6.870977    1.829180    9.960416    ( 0.0000,  0.0000,  0.0000)
  56 N      3.435422    3.658360    9.959978    ( 0.0000,  0.0000,  0.0000)
  57 N      6.870984    3.658360    9.959971    ( 0.0000,  0.0000,  0.0000)
  58 Li     3.435427    5.487540    9.960415    ( 0.0000,  0.0000,  0.0000)
  59 Li     6.870977    5.487540    9.960416    ( 0.0000,  0.0000,  0.0000)
  60 Li     1.717694    0.000000   10.950048    ( 0.0000,  0.0000,  0.0000)
  61 Li     5.153237    0.000000   10.950048    ( 0.0000,  0.0000,  0.0000)
  62 Li     1.717694    3.658360   10.950048    ( 0.0000,  0.0000,  0.0000)
  63 Li     5.153237    3.658360   10.950048    ( 0.0000,  0.0000,  0.0000)
  64 Li     3.435494    0.000000   11.944243    ( 0.0000,  0.0000,  0.0000)
  65 Li     6.871044    0.000000   11.944347    ( 0.0000,  0.0000,  0.0000)
  66 Li     3.435494    3.658360   11.944243    ( 0.0000,  0.0000,  0.0000)
  67 Li     6.871044    3.658360   11.944347    ( 0.0000,  0.0000,  0.0000)
  68 N      1.719392    0.000000   12.955235    ( 0.0000,  0.0000,  0.0000)
  69 N      5.151657    0.000000   12.955235    ( 0.0000,  0.0000,  0.0000)
  70 Li     1.717776    1.829180   12.953548    ( 0.0000,  0.0000,  0.0000)
  71 Li     5.153287    1.829180   12.953548    ( 0.0000,  0.0000,  0.0000)
  72 N      1.719392    3.658360   12.955235    ( 0.0000,  0.0000,  0.0000)
  73 N      5.151657    3.658360   12.955235    ( 0.0000,  0.0000,  0.0000)
  74 Li     1.717776    5.487540   12.953548    ( 0.0000,  0.0000,  0.0000)
  75 Li     5.153287    5.487540   12.953548    ( 0.0000,  0.0000,  0.0000)
  76 Li    -0.000008    0.000000   13.975143    ( 0.0000,  0.0000,  0.0000)
  77 Li     3.435542    0.000000   13.975239    ( 0.0000,  0.0000,  0.0000)
  78 Li    -0.000008    3.658360   13.975143    ( 0.0000,  0.0000,  0.0000)
  79 Li     3.435542    3.658360   13.975239    ( 0.0000,  0.0000,  0.0000)

Unit cell:
           periodic     x           y           z      points  spacing
  1. axis:    yes    6.871100    0.000000    0.000000    35     0.1963
  2. axis:    yes    0.000000    7.316720    0.000000    36     0.2032
  3. axis:    yes    0.000000    0.000000   28.925800   144     0.2009

  Lengths:   6.871100   7.316720  28.925800
  Angles:   90.000000  90.000000  90.000000

Effective grid spacing dv^(1/3) = 0.2001

                     log10-error:    total        iterations:
           time      wfs    density  energy       fermi  poisson
iter:   1  04:32:12  -2.17         -281.633394    4             
iter:   2  04:32:20  -3.56  -2.10  -281.580803    0             
iter:   3  04:32:27  -2.85  -2.17  -281.507728    0             
iter:   4  04:32:34  -3.40  -2.44  -281.512665    0             
iter:   5  04:32:41  -4.25  -2.49  -281.494555    0             
iter:   6  04:32:49  -4.15  -2.80  -281.491037    0             
iter:   7  04:32:57  -4.28  -3.01  -281.495139    0             
iter:   8  04:33:04  -4.73  -2.81  -281.490843    0             
iter:   9  04:33:11  -4.71  -3.22  -281.490813    0             
iter:  10  04:33:19  -4.96  -3.30  -281.490993    0             
iter:  11  04:33:26  -5.44  -3.27  -281.490512    0             
iter:  12  04:33:35  -6.25  -3.91  -281.490517    0             
iter:  13  04:33:42  -7.03  -3.98  -281.490525    0             
iter:  14  04:33:49  -7.18  -4.00  -281.490524    0             
iter:  15  04:33:57  -6.89  -4.16  -281.490520    0             
iter:  16  04:34:04  -8.29  -4.48  -281.490520    0             

Converged after 16 iterations.

Dipole moment: (0.097239, -0.000000, -4.868349) |e|*Ang

Energy contributions relative to reference atoms: (reference = -41801.699299)

Kinetic:       +389.365237
Potential:     -268.047260
External:        +0.000000
XC:            -400.931736
Entropy (-ST):   +0.000000
Local:           -1.876760
--------------------------
Free energy:   -281.490520
Extrapolated:  -281.490520

Fermi level: 0.41476

Showing only first 2 kpts
 Kpt  Band  Eigenvalues  Occupancy
  0    78     -0.28643    0.22222
  0    79     -0.23726    0.22222
  0    80      0.82850    0.00000
  0    81      0.96869    0.00000

  1    78     -0.39061    0.44444
  1    79     -0.31076    0.44444
  1    80      1.28973    0.00000
  1    81      1.33811    0.00000


Gap: 1.066 eV
Transition (v -> c):
  (s=0, k=0, n=79, [0.00, 0.00, 0.00]) -> (s=0, k=0, n=80, [0.00, 0.00, 0.00])

Forces in eV/Ang:
  0 Li    0.00007    0.00000   -0.44371
  1 Li    0.00007    0.00000   -0.43976
  2 Li    0.00007    0.00000   -0.44371
  3 Li    0.00007    0.00000   -0.43976
  4 N     0.00333    0.00000   -0.19598
  5 N    -0.00312    0.00000   -0.19595
  6 Li    0.00245    0.00000   -0.25221
  7 Li   -0.00242    0.00000   -0.25221
  8 N     0.00333    0.00000   -0.19598
  9 N    -0.00312    0.00000   -0.19595
 10 Li    0.00245   -0.00000   -0.25221
 11 Li   -0.00242   -0.00000   -0.25221
 12 Li    0.00002    0.00000   -0.20918
 13 Li    0.00005    0.00000   -0.21270
 14 Li    0.00002    0.00000   -0.20918
 15 Li    0.00005    0.00000   -0.21270
 16 Li    0.00149    0.00000   -0.06765
 17 Li   -0.00152    0.00000   -0.06761
 18 Li    0.00149    0.00000   -0.06765
 19 Li   -0.00152    0.00000   -0.06761
 20 N    -0.00001    0.00000   -0.01350
 21 N     0.00003    0.00000   -0.01325
 22 Li   -0.00002    0.00000   -0.01727
 23 Li    0.00003   -0.00000   -0.01731
 24 N    -0.00001    0.00000   -0.01350
 25 N     0.00003    0.00000   -0.01325
 26 Li   -0.00002   -0.00000   -0.01727
 27 Li    0.00003    0.00000   -0.01731
 28 Li    0.00169    0.00000    0.01584
 29 Li   -0.00164    0.00000    0.01580
 30 Li    0.00169    0.00000    0.01584
 31 Li   -0.00164    0.00000    0.01580
 32 Li   -0.00004    0.00000    0.01132
 33 Li   -0.00001    0.00000    0.01554
 34 Li   -0.00004    0.00000    0.01132
 35 Li   -0.00001    0.00000    0.01554
 36 N     0.00188    0.00000    0.00799
 37 N    -0.00185    0.00000    0.00797
 38 Li    0.00247    0.00000    0.00636
 39 Li   -0.00246    0.00000    0.00636
 40 N     0.00188    0.00000    0.00799
 41 N    -0.00185    0.00000    0.00797
 42 Li    0.00247   -0.00000    0.00636
 43 Li   -0.00246   -0.00000    0.00636
 44 Li    0.00001    0.00000    0.01564
 45 Li    0.00003    0.00000    0.01126
 46 Li    0.00001    0.00000    0.01564
 47 Li    0.00003    0.00000    0.01126
 48 Li    0.00164    0.00000    0.01001
 49 Li   -0.00169    0.00000    0.01003
 50 Li    0.00164    0.00000    0.01001
 51 Li   -0.00169    0.00000    0.01003
 52 N    -0.00001    0.00000    0.01681
 53 N    -0.00000    0.00000    0.01651
 54 Li   -0.00001    0.00000    0.02285
 55 Li    0.00001    0.00000    0.02289
 56 N    -0.00001    0.00000    0.01681
 57 N    -0.00000    0.00000    0.01651
 58 Li   -0.00001   -0.00000    0.02285
 59 Li    0.00001   -0.00000    0.02289
 60 Li    0.00151    0.00000    0.06699
 61 Li   -0.00149    0.00000    0.06697
 62 Li    0.00151    0.00000    0.06699
 63 Li   -0.00149    0.00000    0.06697
 64 Li   -0.00005    0.00000    0.20665
 65 Li   -0.00004    0.00000    0.21021
 66 Li   -0.00005    0.00000    0.20665
 67 Li   -0.00004    0.00000    0.21021
 68 N     0.00312    0.00000    0.26992
 69 N    -0.00331    0.00000    0.26990
 70 Li    0.00242   -0.00000    0.24698
 71 Li   -0.00244    0.00000    0.24698
 72 N     0.00312    0.00000    0.26992
 73 N    -0.00331    0.00000    0.26990
 74 Li    0.00242    0.00000    0.24698
 75 Li   -0.00244   -0.00000    0.24698
 76 Li   -0.00007    0.00000    0.42868
 77 Li   -0.00007    0.00000    0.43251
 78 Li   -0.00007    0.00000    0.42868
 79 Li   -0.00007    0.00000    0.43251

System changes: positions 

Initializing position-dependent things.

Density initialized from wave functions
     .----------------.  
    /|                |  
   / |     Li       Li|  
  /  |                |  
 *   |   Li       Li  |  
 |   |                |  
 |   |                |  
 |   |                |  
 |   |                |  
 |   |                |  
 |   |                |  
 |   |                |  
 |   |                |  
 |   |                |  
 |   |                |  
 |   |                |  
 |   |                |  
 |   |                |  
 |   |                |  
 |   |                |  
 |   |                |  
 |   |  Li Li    Li Li|  
 |   | N        N     |  
 |   |Li LiLi  Li LiLi|  
 |   N Li     N Li    |  
 |   |   Li Li    Li Li  
 |   Li    N  Li    N |  
 |   | Li Li    Li Li |  
 |   |  LN Li    LN Li|  
 |   LiN      LiN     |  
 |   |Li Li    Li Li  |  
 |   N     Li N     Li|  
 |   | Li   Li  Li   Li  
 |   |   LiN      LiN |  
 |   LiLi Li  LiLi Li |  
 |   |   N Li     N Li|  
 |   Li-Li----Li-Li---.  
 |  /  N Li     N Li /   
 | /  Li       Li   /    
 |/  N        N    /     
 *----------------*      

Positions:
   0 Li     3.435111    0.000000   -0.048180    ( 0.0000,  0.0000,  0.0000)
   1 Li     6.870660    0.000000   -0.047950    ( 0.0000,  0.0000,  0.0000)
   2 Li     3.435111    3.658360   -0.048180    ( 0.0000,  0.0000,  0.0000)
   3 Li     6.870660    3.658360   -0.047950    ( 0.0000,  0.0000,  0.0000)
   4 N      1.720120    0.000000    0.988489    ( 0.0000,  0.0000,  0.0000)
   5 N      5.150137    0.000000    0.988490    ( 0.0000,  0.0000,  0.0000)
   6 Li     1.717416    1.829180    0.996432    ( 0.0000,  0.0000,  0.0000)
   7 Li     5.152814    1.829180    0.996431    ( 0.0000,  0.0000,  0.0000)
   8 N      1.720120    3.658360    0.988489    ( 0.0000,  0.0000,  0.0000)
   9 N      5.150137    3.658360    0.988490    ( 0.0000,  0.0000,  0.0000)
  10 Li     1.717416    5.487540    0.996432    ( 0.0000,  0.0000,  0.0000)
  11 Li     5.152814    5.487540    0.996431    ( 0.0000,  0.0000,  0.0000)
  12 Li     3.435170    0.000000    2.017885    ( 0.0000,  0.0000,  0.0000)
  13 Li     6.870720    0.000000    2.017647    ( 0.0000,  0.0000,  0.0000)
  14 Li     3.435170    3.658360    2.017885    ( 0.0000,  0.0000,  0.0000)
  15 Li     6.870720    3.658360    2.017647    ( 0.0000,  0.0000,  0.0000)
  16 Li     1.717431    0.000000    3.016110    ( 0.0000,  0.0000,  0.0000)
  17 Li     5.152914    0.000000    3.016112    ( 0.0000,  0.0000,  0.0000)
  18 Li     1.717431    3.658360    3.016110    ( 0.0000,  0.0000,  0.0000)
  19 Li     5.152914    3.658360    3.016112    ( 0.0000,  0.0000,  0.0000)
  20 N      3.435197    0.000000    4.011158    ( 0.0000,  0.0000,  0.0000)
  21 N      6.870804    0.000000    4.011167    ( 0.0000,  0.0000,  0.0000)
  22 Li     3.435220    1.829180    4.005647    ( 0.0000,  0.0000,  0.0000)
  23 Li     6.870772    1.829180    4.005646    ( 0.0000,  0.0000,  0.0000)
  24 N      3.435197    3.658360    4.011158    ( 0.0000,  0.0000,  0.0000)
  25 N      6.870804    3.658360    4.011167    ( 0.0000,  0.0000,  0.0000)
  26 Li     3.435220    5.487540    4.005647    ( 0.0000,  0.0000,  0.0000)
  27 Li     6.870772    5.487540    4.005646    ( 0.0000,  0.0000,  0.0000)
  28 Li     1.717538    0.000000    5.000518    ( 0.0000,  0.0000,  0.0000)
  29 Li     5.153007    0.000000    5.000515    ( 0.0000,  0.0000,  0.0000)
  30 Li     1.717538    3.658360    5.000518    ( 0.0000,  0.0000,  0.0000)
  31 Li     5.153007    3.658360    5.000515    ( 0.0000,  0.0000,  0.0000)
  32 Li     3.435274    0.000000    5.991991    ( 0.0000,  0.0000,  0.0000)
  33 Li     6.870824    0.000000    5.992253    ( 0.0000,  0.0000,  0.0000)
  34 Li     3.435274    3.658360    5.991991    ( 0.0000,  0.0000,  0.0000)
  35 Li     6.870824    3.658360    5.992253    ( 0.0000,  0.0000,  0.0000)
  36 N      1.720266    0.000000    6.989124    ( 0.0000,  0.0000,  0.0000)
  37 N      5.150388    0.000000    6.989123    ( 0.0000,  0.0000,  0.0000)
  38 Li     1.717623    1.829180    6.983913    ( 0.0000,  0.0000,  0.0000)
  39 Li     5.153025    1.829180    6.983913    ( 0.0000,  0.0000,  0.0000)
  40 N      1.720266    3.658360    6.989124    ( 0.0000,  0.0000,  0.0000)
  41 N      5.150388    3.658360    6.989123    ( 0.0000,  0.0000,  0.0000)
  42 Li     1.717623    5.487540    6.983913    ( 0.0000,  0.0000,  0.0000)
  43 Li     5.153025    5.487540    6.983913    ( 0.0000,  0.0000,  0.0000)
  44 Li     3.435375    0.000000    7.976321    ( 0.0000,  0.0000,  0.0000)
  45 Li     6.870925    0.000000    7.976058    ( 0.0000,  0.0000,  0.0000)
  46 Li     3.435375    3.658360    7.976321    ( 0.0000,  0.0000,  0.0000)
  47 Li     6.870925    3.658360    7.976058    ( 0.0000,  0.0000,  0.0000)
  48 Li     1.717642    0.000000    8.967834    ( 0.0000,  0.0000,  0.0000)
  49 Li     5.153112    0.000000    8.967836    ( 0.0000,  0.0000,  0.0000)
  50 Li     1.717642    3.658360    8.967834    ( 0.0000,  0.0000,  0.0000)
  51 Li     5.153112    3.658360    8.967836    ( 0.0000,  0.0000,  0.0000)
  52 N      3.435418    0.000000    9.961007    ( 0.0000,  0.0000,  0.0000)
  53 N      6.870990    0.000000    9.960990    ( 0.0000,  0.0000,  0.0000)
  54 Li     3.435427    1.829180    9.961847    ( 0.0000,  0.0000,  0.0000)
  55 Li     6.870978    1.829180    9.961849    ( 0.0000,  0.0000,  0.0000)
  56 N      3.435418    3.658360    9.961007    ( 0.0000,  0.0000,  0.0000)
  57 N      6.870990    3.658360    9.960990    ( 0.0000,  0.0000,  0.0000)
  58 Li     3.435427    5.487540    9.961847    ( 0.0000,  0.0000,  0.0000)
  59 Li     6.870978    5.487540    9.961849    ( 0.0000,  0.0000,  0.0000)
  60 Li     1.717735    0.000000   10.950920    ( 0.0000,  0.0000,  0.0000)
  61 Li     5.153219    0.000000   10.950919    ( 0.0000,  0.0000,  0.0000)
  62 Li     1.717735    3.658360   10.950920    ( 0.0000,  0.0000,  0.0000)
  63 Li     5.153219    3.658360   10.950919    ( 0.0000,  0.0000,  0.0000)
  64 Li     3.435479    0.000000   11.949231    ( 0.0000,  0.0000,  0.0000)
  65 Li     6.871029    0.000000   11.949467    ( 0.0000,  0.0000,  0.0000)
  66 Li     3.435479    3.658360   11.949231    ( 0.0000,  0.0000,  0.0000)
  67 Li     6.871029    3.658360   11.949467    ( 0.0000,  0.0000,  0.0000)
  68 N      1.720500    0.000000   12.973767    ( 0.0000,  0.0000,  0.0000)
  69 N      5.150540    0.000000   12.973767    ( 0.0000,  0.0000,  0.0000)
  70 Li     1.717833    1.829180   12.970571    ( 0.0000,  0.0000,  0.0000)
  71 Li     5.153232    1.829180   12.970571    ( 0.0000,  0.0000,  0.0000)
  72 N      1.720500    3.658360   12.973767    ( 0.0000,  0.0000,  0.0000)
  73 N      5.150540    3.658360   12.973767    ( 0.0000,  0.0000,  0.0000)
  74 Li     1.717833    5.487540   12.970571    ( 0.0000,  0.0000,  0.0000)
  75 Li     5.153232    5.487540   12.970571    ( 0.0000,  0.0000,  0.0000)
  76 Li    -0.000014    0.000000   14.014659    ( 0.0000,  0.0000,  0.0000)
  77 Li     3.435536    0.000000   14.014887    ( 0.0000,  0.0000,  0.0000)
  78 Li    -0.000014    3.658360   14.014659    ( 0.0000,  0.0000,  0.0000)
  79 Li     3.435536    3.658360   14.014887    ( 0.0000,  0.0000,  0.0000)

Unit cell:
           periodic     x           y           z      points  spacing
  1. axis:    yes    6.871100    0.000000    0.000000    35     0.1963
  2. axis:    yes    0.000000    7.316720    0.000000    36     0.2032
  3. axis:    yes    0.000000    0.000000   28.925800   144     0.2009

  Lengths:   6.871100   7.316720  28.925800
  Angles:   90.000000  90.000000  90.000000

Effective grid spacing dv^(1/3) = 0.2001

                     log10-error:    total        iterations:
           time      wfs    density  energy       fermi  poisson
iter:   1  04:34:23  -2.14         -281.825193    0             
iter:   2  04:34:30  -3.50  -2.10  -281.771042    0             
iter:   3  04:34:37  -2.87  -2.17  -281.695492    0             
iter:   4  04:34:46  -3.44  -2.45  -281.700449    0             
iter:   5  04:34:53  -4.38  -2.50  -281.685170    0             
iter:   6  04:35:00  -4.25  -2.76  -281.680301    0             
iter:   7  04:35:08  -4.34  -3.04  -281.684978    0             
iter:   8  04:35:16  -4.62  -2.77  -281.680098    0             
iter:   9  04:35:23  -4.91  -3.29  -281.680302    0             
iter:  10  04:35:30  -5.10  -3.35  -281.680384    0             
iter:  11  04:35:37  -5.39  -3.26  -281.679954    0             
iter:  12  04:35:46  -6.41  -3.91  -281.679959    0             
iter:  13  04:35:52  -6.55  -3.97  -281.679979    0             
iter:  14  04:36:00  -6.88  -3.90  -281.679965    0             
iter:  15  04:36:07  -6.75  -4.18  -281.679966    0             
iter:  16  04:36:14  -6.99  -4.26  -281.679966    0             
iter:  17  04:36:22  -7.57  -4.23  -281.679963    0             
iter:  18  04:36:29  -7.20  -4.43  -281.679966    0             
iter:  19  04:36:37  -7.20  -4.26  -281.679963    0             
iter:  20  04:36:44  -8.35  -4.57  -281.679963    0             

Converged after 20 iterations.

Dipole moment: (0.094508, -0.000000, 0.213758) |e|*Ang

Energy contributions relative to reference atoms: (reference = -41801.699299)

Kinetic:       +384.094199
Potential:     -264.458672
External:        +0.000000
XC:            -399.439322
Entropy (-ST):   -0.000000
Local:           -1.876167
--------------------------
Free energy:   -281.679963
Extrapolated:  -281.679963

Fermi level: 0.41476

Showing only first 2 kpts
 Kpt  Band  Eigenvalues  Occupancy
  0    78     -0.27803    0.22222
  0    79     -0.20321    0.22222
  0    80      0.81063    0.00000
  0    81      0.95744    0.00000

  1    78     -0.38319    0.44444
  1    79     -0.27663    0.44444
  1    80      1.26255    0.00000
  1    81      1.31647    0.00000


Gap: 1.014 eV
Transition (v -> c):
  (s=0, k=0, n=79, [0.00, 0.00, 0.00]) -> (s=0, k=0, n=80, [0.00, 0.00, 0.00])

Forces in eV/Ang:
  0 Li    0.00005    0.00000   -0.27585
  1 Li    0.00006    0.00000   -0.27048
  2 Li    0.00005    0.00000   -0.27585
  3 Li    0.00006    0.00000   -0.27048
  4 N    -0.01102    0.00000   -0.11057
  5 N     0.01130    0.00000   -0.11053
  6 Li    0.00374    0.00000   -0.25049
  7 Li   -0.00366   -0.00000   -0.25049
  8 N    -0.01102    0.00000   -0.11057
  9 N     0.01130    0.00000   -0.11053
 10 Li    0.00374   -0.00000   -0.25049
 11 Li   -0.00366    0.00000   -0.25049
 12 Li   -0.00016    0.00000   -0.34305
 13 Li   -0.00011    0.00000   -0.34743
 14 Li   -0.00016    0.00000   -0.34305
 15 Li   -0.00011    0.00000   -0.34743
 16 Li    0.00232    0.00000   -0.11834
 17 Li   -0.00195    0.00000   -0.11828
 18 Li    0.00232    0.00000   -0.11834
 19 Li   -0.00195    0.00000   -0.11828
 20 N     0.00012    0.00000   -0.04750
 21 N    -0.00018    0.00000   -0.04659
 22 Li   -0.00004    0.00000   -0.01847
 23 Li    0.00004   -0.00000   -0.01852
 24 N     0.00012    0.00000   -0.04750
 25 N    -0.00018    0.00000   -0.04659
 26 Li   -0.00004   -0.00000   -0.01847
 27 Li    0.00004    0.00000   -0.01852
 28 Li    0.00217    0.00000    0.02034
 29 Li   -0.00248    0.00000    0.02028
 30 Li    0.00217    0.00000    0.02034
 31 Li   -0.00248    0.00000    0.02028
 32 Li    0.00016    0.00000    0.01890
 33 Li    0.00019    0.00000    0.02452
 34 Li    0.00016    0.00000    0.01890
 35 Li    0.00019    0.00000    0.02452
 36 N    -0.01444    0.00000   -0.02240
 37 N     0.01445    0.00000   -0.02244
 38 Li    0.00382   -0.00000    0.01044
 39 Li   -0.00382    0.00000    0.01045
 40 N    -0.01444    0.00000   -0.02240
 41 N     0.01445    0.00000   -0.02244
 42 Li    0.00382    0.00000    0.01044
 43 Li   -0.00382   -0.00000    0.01045
 44 Li   -0.00018    0.00000    0.02356
 45 Li   -0.00015    0.00000    0.01751
 46 Li   -0.00018    0.00000    0.02356
 47 Li   -0.00015    0.00000    0.01751
 48 Li    0.00249    0.00000    0.01840
 49 Li   -0.00214    0.00000    0.01842
 50 Li    0.00249    0.00000    0.01840
 51 Li   -0.00214    0.00000    0.01842
 52 N     0.00003    0.00000    0.02506
 53 N    -0.00009    0.00000    0.02419
 54 Li   -0.00001   -0.00000    0.02769
 55 Li    0.00002    0.00000    0.02774
 56 N     0.00003    0.00000    0.02506
 57 N    -0.00009    0.00000    0.02419
 58 Li   -0.00001    0.00000    0.02769
 59 Li    0.00002   -0.00000    0.02774
 60 Li    0.00195    0.00000    0.12514
 61 Li   -0.00230    0.00000    0.12511
 62 Li    0.00195    0.00000    0.12514
 63 Li   -0.00230    0.00000    0.12511
 64 Li    0.00013    0.00000    0.34275
 65 Li    0.00014    0.00000    0.34726
 66 Li    0.00013    0.00000    0.34275
 67 Li    0.00014    0.00000    0.34726
 68 N    -0.01125    0.00000    0.25951
 69 N     0.01099    0.00000    0.25948
 70 Li    0.00364   -0.00000    0.24408
 71 Li   -0.00372   -0.00000    0.24408
 72 N    -0.01125    0.00000    0.25951
 73 N     0.01099    0.00000    0.25948
 74 Li    0.00364    0.00000    0.24408
 75 Li   -0.00372    0.00000    0.24408
 76 Li   -0.00004    0.00000    0.25823
 77 Li   -0.00005    0.00000    0.26339
 78 Li   -0.00004    0.00000    0.25823
 79 Li   -0.00005    0.00000    0.26339

System changes: positions 

Initializing position-dependent things.

Density initialized from wave functions
     .----------------.  
    /|                |  
   / |     Li       Li|  
  /  |                |  
 *   |   Li       Li  |  
 |   |                |  
 |   |                |  
 |   |                |  
 |   |                |  
 |   |                |  
 |   |                |  
 |   |                |  
 |   |                |  
 |   |                |  
 |   |                |  
 |   |                |  
 |   |                |  
 |   |                |  
 |   |                |  
 |   |                |  
 |   |                |  
 |   |  Li Li    Li Li|  
 |   | N        N     |  
 |   |Li LiLi  Li LiLi|  
 |   N Li     N Li    |  
 |   |   Li Li    Li Li  
 |   Li    N  Li    N |  
 |   | Li Li    Li Li |  
 |   |  LN Li    LN Li|  
 |   LiN      LiN     |  
 |   |Li Li    Li Li  |  
 |   N     Li N     Li|  
 |   | Li   Li  Li   Li  
 |   |   LiN      LiN |  
 |   LiLi Li  LiLi Li |  
 |   |   N Li     N Li|  
 |   Li-Li----Li-Li---.  
 |  /  N Li     N Li /   
 | /  Li       Li   /    
 |/  N        N    /     
 *----------------*      

Positions:
   0 Li     3.435117    0.000000   -0.088180    ( 0.0000,  0.0000,  0.0000)
   1 Li     6.870666    0.000000   -0.087778    ( 0.0000,  0.0000,  0.0000)
   2 Li     3.435117    3.658360   -0.088180    ( 0.0000,  0.0000,  0.0000)
   3 Li     6.870666    3.658360   -0.087778    ( 0.0000,  0.0000,  0.0000)
   4 N      1.721061    0.000000    0.968902    ( 0.0000,  0.0000,  0.0000)
   5 N      5.149209    0.000000    0.968904    ( 0.0000,  0.0000,  0.0000)
   6 Li     1.717502    1.829180    0.977905    ( 0.0000,  0.0000,  0.0000)
   7 Li     5.152727    1.829180    0.977905    ( 0.0000,  0.0000,  0.0000)
   8 N      1.721061    3.658360    0.968902    ( 0.0000,  0.0000,  0.0000)
   9 N      5.149209    3.658360    0.968904    ( 0.0000,  0.0000,  0.0000)
  10 Li     1.717502    5.487540    0.977905    ( 0.0000,  0.0000,  0.0000)
  11 Li     5.152727    5.487540    0.977905    ( 0.0000,  0.0000,  0.0000)
  12 Li     3.435180    0.000000    2.009837    ( 0.0000,  0.0000,  0.0000)
  13 Li     6.870732    0.000000    2.009439    ( 0.0000,  0.0000,  0.0000)
  14 Li     3.435180    3.658360    2.009837    ( 0.0000,  0.0000,  0.0000)
  15 Li     6.870732    3.658360    2.009439    ( 0.0000,  0.0000,  0.0000)
  16 Li     1.717465    0.000000    3.014076    ( 0.0000,  0.0000,  0.0000)
  17 Li     5.152858    0.000000    3.014081    ( 0.0000,  0.0000,  0.0000)
  18 Li     1.717465    3.658360    3.014076    ( 0.0000,  0.0000,  0.0000)
  19 Li     5.152858    3.658360    3.014081    ( 0.0000,  0.0000,  0.0000)
  20 N      3.435189    0.000000    4.011498    ( 0.0000,  0.0000,  0.0000)
  21 N      6.870815    0.000000    4.011526    ( 0.0000,  0.0000,  0.0000)
  22 Li     3.435219    1.829180    4.004248    ( 0.0000,  0.0000,  0.0000)
  23 Li     6.870773    1.829180    4.004246    ( 0.0000,  0.0000,  0.0000)
  24 N      3.435189    3.658360    4.011498    ( 0.0000,  0.0000,  0.0000)
  25 N      6.870815    3.658360    4.011526    ( 0.0000,  0.0000,  0.0000)
  26 Li     3.435219    5.487540    4.004248    ( 0.0000,  0.0000,  0.0000)
  27 Li     6.870773    5.487540    4.004246    ( 0.0000,  0.0000,  0.0000)
  28 Li     1.717598    0.000000    5.000955    ( 0.0000,  0.0000,  0.0000)
  29 Li     5.152968    0.000000    5.000951    ( 0.0000,  0.0000,  0.0000)
  30 Li     1.717598    3.658360    5.000955    ( 0.0000,  0.0000,  0.0000)
  31 Li     5.152968    3.658360    5.000951    ( 0.0000,  0.0000,  0.0000)
  32 Li     3.435262    0.000000    5.992314    ( 0.0000,  0.0000,  0.0000)
  33 Li     6.870813    0.000000    5.992765    ( 0.0000,  0.0000,  0.0000)
  34 Li     3.435262    3.658360    5.992314    ( 0.0000,  0.0000,  0.0000)
  35 Li     6.870813    3.658360    5.992765    ( 0.0000,  0.0000,  0.0000)
  36 N      1.721128    0.000000    6.990967    ( 0.0000,  0.0000,  0.0000)
  37 N      5.149528    0.000000    6.990966    ( 0.0000,  0.0000,  0.0000)
  38 Li     1.717710    1.829180    6.984181    ( 0.0000,  0.0000,  0.0000)
  39 Li     5.152938    1.829180    6.984181    ( 0.0000,  0.0000,  0.0000)
  40 N      1.721128    3.658360    6.990967    ( 0.0000,  0.0000,  0.0000)
  41 N      5.149528    3.658360    6.990966    ( 0.0000,  0.0000,  0.0000)
  42 Li     1.717710    5.487540    6.984181    ( 0.0000,  0.0000,  0.0000)
  43 Li     5.152938    5.487540    6.984181    ( 0.0000,  0.0000,  0.0000)
  44 Li     3.435385    0.000000    7.977063    ( 0.0000,  0.0000,  0.0000)
  45 Li     6.870936    0.000000    7.976605    ( 0.0000,  0.0000,  0.0000)
  46 Li     3.435385    3.658360    7.977063    ( 0.0000,  0.0000,  0.0000)
  47 Li     6.870936    3.658360    7.976605    ( 0.0000,  0.0000,  0.0000)
  48 Li     1.717680    0.000000    8.968417    ( 0.0000,  0.0000,  0.0000)
  49 Li     5.153051    0.000000    8.968419    ( 0.0000,  0.0000,  0.0000)
  50 Li     1.717680    3.658360    8.968417    ( 0.0000,  0.0000,  0.0000)
  51 Li     5.153051    3.658360    8.968419    ( 0.0000,  0.0000,  0.0000)
  52 N      3.435416    0.000000    9.962294    ( 0.0000,  0.0000,  0.0000)
  53 N      6.870994    0.000000    9.962256    ( 0.0000,  0.0000,  0.0000)
  54 Li     3.435427    1.829180    9.963483    ( 0.0000,  0.0000,  0.0000)
  55 Li     6.870978    1.829180    9.963485    ( 0.0000,  0.0000,  0.0000)
  56 N      3.435416    3.658360    9.962294    ( 0.0000,  0.0000,  0.0000)
  57 N      6.870994    3.658360    9.962256    ( 0.0000,  0.0000,  0.0000)
  58 Li     3.435427    5.487540    9.963483    ( 0.0000,  0.0000,  0.0000)
  59 Li     6.870978    5.487540    9.963485    ( 0.0000,  0.0000,  0.0000)
  60 Li     1.717789    0.000000   10.952979    ( 0.0000,  0.0000,  0.0000)
  61 Li     5.153184    0.000000   10.952978    ( 0.0000,  0.0000,  0.0000)
  62 Li     1.717789    3.658360   10.952979    ( 0.0000,  0.0000,  0.0000)
  63 Li     5.153184    3.658360   10.952978    ( 0.0000,  0.0000,  0.0000)
  64 Li     3.435466    0.000000   11.957231    ( 0.0000,  0.0000,  0.0000)
  65 Li     6.871017    0.000000   11.957627    ( 0.0000,  0.0000,  0.0000)
  66 Li     3.435466    3.658360   11.957231    ( 0.0000,  0.0000,  0.0000)
  67 Li     6.871017    3.658360   11.957627    ( 0.0000,  0.0000,  0.0000)
  68 N      1.721425    0.000000   12.993581    ( 0.0000,  0.0000,  0.0000)
  69 N      5.149603    0.000000   12.993580    ( 0.0000,  0.0000,  0.0000)
  70 Li     1.717920    1.829180   12.988905    ( 0.0000,  0.0000,  0.0000)
  71 Li     5.153147    1.829180   12.988905    ( 0.0000,  0.0000,  0.0000)
  72 N      1.721425    3.658360   12.993581    ( 0.0000,  0.0000,  0.0000)
  73 N      5.149603    3.658360   12.993580    ( 0.0000,  0.0000,  0.0000)
  74 Li     1.717920    5.487540   12.988905    ( 0.0000,  0.0000,  0.0000)
  75 Li     5.153147    5.487540   12.988905    ( 0.0000,  0.0000,  0.0000)
  76 Li    -0.000020    0.000000   14.054086    ( 0.0000,  0.0000,  0.0000)
  77 Li     3.435530    0.000000   14.054482    ( 0.0000,  0.0000,  0.0000)
  78 Li    -0.000020    3.658360   14.054086    ( 0.0000,  0.0000,  0.0000)
  79 Li     3.435530    3.658360   14.054482    ( 0.0000,  0.0000,  0.0000)

Unit cell:
           periodic     x           y           z      points  spacing
  1. axis:    yes    6.871100    0.000000    0.000000    35     0.1963
  2. axis:    yes    0.000000    7.316720    0.000000    36     0.2032
  3. axis:    yes    0.000000    0.000000   28.925800   144     0.2009

  Lengths:   6.871100   7.316720  28.925800
  Angles:   90.000000  90.000000  90.000000

Effective grid spacing dv^(1/3) = 0.2001

                     log10-error:    total        iterations:
           time      wfs    density  energy       fermi  poisson
iter:   1  04:37:02  -2.11         -281.977620    0             
iter:   2  04:37:09  -3.45  -2.09  -281.922385    0             
iter:   3  04:37:17  -2.89  -2.17  -281.844833    0             
iter:   4  04:37:24  -3.50  -2.46  -281.849203    0             
iter:   5  04:37:32  -4.49  -2.52  -281.836738    0             
iter:   6  04:37:39  -4.34  -2.75  -281.831573    0             
iter:   7  04:37:47  -4.43  -3.01  -281.835573    0             
iter:   8  04:37:54  -4.58  -2.77  -281.831176    0             
iter:   9  04:38:02  -5.05  -3.37  -281.831536    0             
iter:  10  04:38:09  -5.09  -3.34  -281.831542    0             
iter:  11  04:38:16  -5.42  -3.26  -281.831160    0             
iter:  12  04:38:24  -6.45  -3.89  -281.831164    0             
iter:  13  04:38:32  -6.39  -3.96  -281.831188    0             
iter:  14  04:38:39  -6.77  -3.84  -281.831170    0             
iter:  15  04:38:47  -6.73  -4.17  -281.831172    0             
iter:  16  04:38:54  -7.04  -4.20  -281.831171    0             
iter:  17  04:39:02  -7.40  -4.24  -281.831169    0             
iter:  18  04:39:09  -7.87  -4.37  -281.831168    0             
iter:  19  04:39:17  -7.66  -4.45  -281.831169    0             
iter:  20  04:39:24  -8.43  -4.46  -281.831168    0             

Converged after 20 iterations.

Dipole moment: (0.092342, -0.000000, 4.842163) |e|*Ang

Energy contributions relative to reference atoms: (reference = -41801.699299)

Kinetic:       +378.911561
Potential:     -260.908493
External:        +0.000000
XC:            -397.950514
Entropy (-ST):   +0.000000
Local:           -1.883721
--------------------------
Free energy:   -281.831168
Extrapolated:  -281.831168

Fermi level: 0.41476

Showing only first 2 kpts
 Kpt  Band  Eigenvalues  Occupancy
  0    78     -0.26811    0.22222
  0    79     -0.16272    0.22222
  0    80      0.79078    0.00000
  0    81      0.93642    0.00000

  1    78     -0.35531    0.44444
  1    79     -0.23641    0.44444
  1    80      1.23284    0.00000
  1    81      1.29425    0.00000


Gap: 0.953 eV
Transition (v -> c):
  (s=0, k=0, n=79, [0.00, 0.00, 0.00]) -> (s=0, k=0, n=80, [0.00, 0.00, 0.00])

Forces in eV/Ang:
  0 Li    0.00003    0.00000   -0.12346
  1 Li    0.00005    0.00000   -0.11801
  2 Li    0.00003    0.00000   -0.12346
  3 Li    0.00005    0.00000   -0.11801
  4 N    -0.02161    0.00000   -0.06262
  5 N     0.02193    0.00000   -0.06256
  6 Li    0.00483   -0.00000   -0.24609
  7 Li   -0.00471    0.00000   -0.24609
  8 N    -0.02161    0.00000   -0.06262
  9 N     0.02193    0.00000   -0.06256
 10 Li    0.00483    0.00000   -0.24609
 11 Li   -0.00471   -0.00000   -0.24609
 12 Li   -0.00029    0.00000   -0.44320
 13 Li   -0.00024    0.00000   -0.44727
 14 Li   -0.00029    0.00000   -0.44320
 15 Li   -0.00024    0.00000   -0.44727
 16 Li    0.00272    0.00000   -0.15542
 17 Li   -0.00203    0.00000   -0.15536
 18 Li    0.00272    0.00000   -0.15542
 19 Li   -0.00203    0.00000   -0.15536
 20 N     0.00023    0.00000   -0.08589
 21 N    -0.00033    0.00000   -0.08465
 22 Li   -0.00005    0.00000   -0.02067
 23 Li    0.00005   -0.00000   -0.02070
 24 N     0.00023    0.00000   -0.08589
 25 N    -0.00033    0.00000   -0.08465
 26 Li   -0.00005   -0.00000   -0.02067
 27 Li    0.00005    0.00000   -0.02070
 28 Li    0.00223    0.00000    0.01657
 29 Li   -0.00283    0.00000    0.01651
 30 Li    0.00223    0.00000    0.01657
 31 Li   -0.00283    0.00000    0.01651
 32 Li    0.00032    0.00000    0.02224
 33 Li    0.00036    0.00000    0.02773
 34 Li    0.00032    0.00000    0.02224
 35 Li    0.00036    0.00000    0.02773
 36 N    -0.02668    0.00000   -0.04423
 37 N     0.02667    0.00000   -0.04428
 38 Li    0.00496   -0.00000    0.01344
 39 Li   -0.00497    0.00000    0.01344
 40 N    -0.02668    0.00000   -0.04423
 41 N     0.02667    0.00000   -0.04428
 42 Li    0.00496    0.00000    0.01344
 43 Li   -0.00497   -0.00000    0.01344
 44 Li   -0.00033    0.00000    0.02972
 45 Li   -0.00029    0.00000    0.02355
 46 Li   -0.00033    0.00000    0.02972
 47 Li   -0.00029    0.00000    0.02355
 48 Li    0.00283    0.00000    0.02880
 49 Li   -0.00216    0.00000    0.02882
 50 Li    0.00283    0.00000    0.02880
 51 Li   -0.00216    0.00000    0.02882
 52 N     0.00006    0.00000    0.04945
 53 N    -0.00016    0.00000    0.04824
 54 Li   -0.00002   -0.00000    0.03273
 55 Li    0.00002   -0.00000    0.03277
 56 N     0.00006    0.00000    0.04945
 57 N    -0.00016    0.00000    0.04824
 58 Li   -0.00002    0.00000    0.03273
 59 Li    0.00002    0.00000    0.03277
 60 Li    0.00204    0.00000    0.17215
 61 Li   -0.00268    0.00000    0.17213
 62 Li    0.00204    0.00000    0.17215
 63 Li   -0.00268    0.00000    0.17213
 64 Li    0.00027    0.00000    0.44739
 65 Li    0.00028    0.00000    0.45159
 66 Li    0.00027    0.00000    0.44739
 67 Li    0.00028    0.00000    0.45159
 68 N    -0.02179    0.00000    0.23899
 69 N     0.02150    0.00000    0.23896
 70 Li    0.00469    0.00000    0.24052
 71 Li   -0.00482   -0.00000    0.24053
 72 N    -0.02179    0.00000    0.23899
 73 N     0.02150    0.00000    0.23896
 74 Li    0.00469   -0.00000    0.24052
 75 Li   -0.00482    0.00000    0.24053
 76 Li   -0.00003    0.00000    0.10872
 77 Li   -0.00003    0.00000    0.11396
 78 Li   -0.00003    0.00000    0.10872
 79 Li   -0.00003    0.00000    0.11396

System changes: positions 

Initializing position-dependent things.

Density initialized from wave functions
     .----------------.  
    /|                |  
   / |     Li       Li|  
  /  |                |  
 *   |   Li       Li  |  
 |   |                |  
 |   |                |  
 |   |                |  
 |   |                |  
 |   |                |  
 |   |                |  
 |   |                |  
 |   |                |  
 |   |                |  
 |   |                |  
 |   |                |  
 |   |                |  
 |   |                |  
 |   |                |  
 |   |                |  
 |   |     Li       Li|  
 |   |  Li       Li   |  
 |   | N Li     N Li  |  
 |   |Li   Li  Li   Li|  
 |   N Li     N Li    |  
 |   |   Li Li    Li Li  
 |   Li    N  Li    N |  
 |   | Li Li    Li Li |  
 |   |  LN Li    LN Li|  
 |   LiN      LiN     |  
 |   |Li Li    Li Li  |  
 |   N     Li N     Li|  
 |   | Li   Li  Li   Li  
 |   |   LiN      LiN |  
 |   LiLi Li  LiLi Li |  
 |   |   N        N   |  
 |   Li-Li-Li-Li-Li-Li.  
 |  /  N        N    /   
 | /  Li Li    Li Li/    
 |/  N        N    /     
 *----------------*      

Positions:
   0 Li     3.435124    0.000000   -0.128180    ( 0.0000,  0.0000,  0.0000)
   1 Li     6.870673    0.000000   -0.127583    ( 0.0000,  0.0000,  0.0000)
   2 Li     3.435124    3.658360   -0.128180    ( 0.0000,  0.0000,  0.0000)
   3 Li     6.870673    3.658360   -0.127583    ( 0.0000,  0.0000,  0.0000)
   4 N      1.721834    0.000000    0.948875    ( 0.0000,  0.0000,  0.0000)
   5 N      5.148452    0.000000    0.948879    ( 0.0000,  0.0000,  0.0000)
   6 Li     1.717621    1.829180    0.957849    ( 0.0000,  0.0000,  0.0000)
   7 Li     5.152608    1.829180    0.957849    ( 0.0000,  0.0000,  0.0000)
   8 N      1.721834    3.658360    0.948875    ( 0.0000,  0.0000,  0.0000)
   9 N      5.148452    3.658360    0.948879    ( 0.0000,  0.0000,  0.0000)
  10 Li     1.717621    5.487540    0.957849    ( 0.0000,  0.0000,  0.0000)
  11 Li     5.152608    5.487540    0.957849    ( 0.0000,  0.0000,  0.0000)
  12 Li     3.435189    0.000000    1.998674    ( 0.0000,  0.0000,  0.0000)
  13 Li     6.870741    0.000000    1.998106    ( 0.0000,  0.0000,  0.0000)
  14 Li     3.435189    3.658360    1.998674    ( 0.0000,  0.0000,  0.0000)
  15 Li     6.870741    3.658360    1.998106    ( 0.0000,  0.0000,  0.0000)
  16 Li     1.717513    0.000000    3.010966    ( 0.0000,  0.0000,  0.0000)
  17 Li     5.152794    0.000000    3.010973    ( 0.0000,  0.0000,  0.0000)
  18 Li     1.717513    3.658360    3.010966    ( 0.0000,  0.0000,  0.0000)
  19 Li     5.152794    3.658360    3.010973    ( 0.0000,  0.0000,  0.0000)
  20 N      3.435184    0.000000    4.011016    ( 0.0000,  0.0000,  0.0000)
  21 N      6.870823    0.000000    4.011073    ( 0.0000,  0.0000,  0.0000)
  22 Li     3.435219    1.829180    4.002687    ( 0.0000,  0.0000,  0.0000)
  23 Li     6.870774    1.829180    4.002683    ( 0.0000,  0.0000,  0.0000)
  24 N      3.435184    3.658360    4.011016    ( 0.0000,  0.0000,  0.0000)
  25 N      6.870823    3.658360    4.011073    ( 0.0000,  0.0000,  0.0000)
  26 Li     3.435219    5.487540    4.002687    ( 0.0000,  0.0000,  0.0000)
  27 Li     6.870774    5.487540    4.002683    ( 0.0000,  0.0000,  0.0000)
  28 Li     1.717667    0.000000    5.001385    ( 0.0000,  0.0000,  0.0000)
  29 Li     5.152914    0.000000    5.001378    ( 0.0000,  0.0000,  0.0000)
  30 Li     1.717667    3.658360    5.001385    ( 0.0000,  0.0000,  0.0000)
  31 Li     5.152914    3.658360    5.001378    ( 0.0000,  0.0000,  0.0000)
  32 Li     3.435252    0.000000    5.992761    ( 0.0000,  0.0000,  0.0000)
  33 Li     6.870805    0.000000    5.993419    ( 0.0000,  0.0000,  0.0000)
  34 Li     3.435252    3.658360    5.992761    ( 0.0000,  0.0000,  0.0000)
  35 Li     6.870805    3.658360    5.993419    ( 0.0000,  0.0000,  0.0000)
  36 N      1.721776    0.000000    6.992461    ( 0.0000,  0.0000,  0.0000)
  37 N      5.148882    0.000000    6.992458    ( 0.0000,  0.0000,  0.0000)
  38 Li     1.717833    1.829180    6.984544    ( 0.0000,  0.0000,  0.0000)
  39 Li     5.152816    1.829180    6.984544    ( 0.0000,  0.0000,  0.0000)
  40 N      1.721776    3.658360    6.992461    ( 0.0000,  0.0000,  0.0000)
  41 N      5.148882    3.658360    6.992458    ( 0.0000,  0.0000,  0.0000)
  42 Li     1.717833    5.487540    6.984544    ( 0.0000,  0.0000,  0.0000)
  43 Li     5.152816    5.487540    6.984544    ( 0.0000,  0.0000,  0.0000)
  44 Li     3.435392    0.000000    7.978015    ( 0.0000,  0.0000,  0.0000)
  45 Li     6.870944    0.000000    7.977337    ( 0.0000,  0.0000,  0.0000)
  46 Li     3.435392    3.658360    7.978015    ( 0.0000,  0.0000,  0.0000)
  47 Li     6.870944    3.658360    7.977337    ( 0.0000,  0.0000,  0.0000)
  48 Li     1.717731    0.000000    8.969272    ( 0.0000,  0.0000,  0.0000)
  49 Li     5.152982    0.000000    8.969275    ( 0.0000,  0.0000,  0.0000)
  50 Li     1.717731    3.658360    8.969272    ( 0.0000,  0.0000,  0.0000)
  51 Li     5.152982    3.658360    8.969275    ( 0.0000,  0.0000,  0.0000)
  52 N      3.435413    0.000000    9.964188    ( 0.0000,  0.0000,  0.0000)
  53 N      6.870996    0.000000    9.964120    ( 0.0000,  0.0000,  0.0000)
  54 Li     3.435427    1.829180    9.965368    ( 0.0000,  0.0000,  0.0000)
  55 Li     6.870979    1.829180    9.965372    ( 0.0000,  0.0000,  0.0000)
  56 N      3.435413    3.658360    9.964188    ( 0.0000,  0.0000,  0.0000)
  57 N      6.870996    3.658360    9.964120    ( 0.0000,  0.0000,  0.0000)
  58 Li     3.435427    5.487540    9.965368    ( 0.0000,  0.0000,  0.0000)
  59 Li     6.870979    5.487540    9.965372    ( 0.0000,  0.0000,  0.0000)
  60 Li     1.717851    0.000000   10.956328    ( 0.0000,  0.0000,  0.0000)
  61 Li     5.153135    0.000000   10.956326    ( 0.0000,  0.0000,  0.0000)
  62 Li     1.717851    3.658360   10.956328    ( 0.0000,  0.0000,  0.0000)
  63 Li     5.153135    3.658360   10.956326    ( 0.0000,  0.0000,  0.0000)
  64 Li     3.435456    0.000000   11.968432    ( 0.0000,  0.0000,  0.0000)
  65 Li     6.871007    0.000000   11.968999    ( 0.0000,  0.0000,  0.0000)
  66 Li     3.435456    3.658360   11.968432    ( 0.0000,  0.0000,  0.0000)
  67 Li     6.871007    3.658360   11.968999    ( 0.0000,  0.0000,  0.0000)
  68 N      1.722181    0.000000   13.014702    ( 0.0000,  0.0000,  0.0000)
  69 N      5.148834    0.000000   13.014701    ( 0.0000,  0.0000,  0.0000)
  70 Li     1.718039    1.829180   13.008760    ( 0.0000,  0.0000,  0.0000)
  71 Li     5.153028    1.829180   13.008760    ( 0.0000,  0.0000,  0.0000)
  72 N      1.722181    3.658360   13.014702    ( 0.0000,  0.0000,  0.0000)
  73 N      5.148834    3.658360   13.014701    ( 0.0000,  0.0000,  0.0000)
  74 Li     1.718039    5.487540   13.008760    ( 0.0000,  0.0000,  0.0000)
  75 Li     5.153028    5.487540   13.008760    ( 0.0000,  0.0000,  0.0000)
  76 Li    -0.000027    0.000000   14.093501    ( 0.0000,  0.0000,  0.0000)
  77 Li     3.435523    0.000000   14.094086    ( 0.0000,  0.0000,  0.0000)
  78 Li    -0.000027    3.658360   14.093501    ( 0.0000,  0.0000,  0.0000)
  79 Li     3.435523    3.658360   14.094086    ( 0.0000,  0.0000,  0.0000)

Unit cell:
           periodic     x           y           z      points  spacing
  1. axis:    yes    6.871100    0.000000    0.000000    35     0.1963
  2. axis:    yes    0.000000    7.316720    0.000000    36     0.2032
  3. axis:    yes    0.000000    0.000000   28.925800   144     0.2009

  Lengths:   6.871100   7.316720  28.925800
  Angles:   90.000000  90.000000  90.000000

Effective grid spacing dv^(1/3) = 0.2001

                     log10-error:    total        iterations:
           time      wfs    density  energy       fermi  poisson
iter:   1  04:39:42  -2.07         -282.112759    0             
iter:   2  04:39:50  -3.40  -2.08  -282.052757    0             
iter:   3  04:39:57  -2.90  -2.16  -281.968629    0             
iter:   4  04:40:05  -3.59  -2.47  -281.972139    0             
iter:   5  04:40:13  -4.57  -2.53  -281.962825    0             
iter:   6  04:40:20  -4.39  -2.72  -281.957191    0             
iter:   7  04:40:28  -4.57  -2.98  -281.960133    0             
iter:   8  04:40:35  -4.59  -2.81  -281.956692    0             
iter:   9  04:40:43  -5.10  -3.40  -281.957043    0             
iter:  10  04:40:50  -5.07  -3.33  -281.957018    0             
iter:  11  04:40:58  -5.54  -3.29  -281.956704    0             
iter:  12  04:41:05  -6.52  -3.87  -281.956707    0             
iter:  13  04:41:12  -6.37  -3.93  -281.956732    0             
iter:  14  04:41:20  -6.70  -3.83  -281.956712    0             
iter:  15  04:41:28  -6.76  -4.22  -281.956714    0             
iter:  16  04:41:36  -7.07  -4.22  -281.956713    0             
iter:  17  04:41:43  -7.48  -4.28  -281.956711    0             
iter:  18  04:41:50  -8.03  -4.41  -281.956711    0             

Converged after 18 iterations.

Dipole moment: (0.090704, -0.000000, 8.761154) |e|*Ang

Energy contributions relative to reference atoms: (reference = -41801.699299)

Kinetic:       +373.719588
Potential:     -257.346908
External:        +0.000000
XC:            -396.453665
Entropy (-ST):   -0.000000
Local:           -1.875727
--------------------------
Free energy:   -281.956711
Extrapolated:  -281.956711

Fermi level: 0.41476

Showing only first 2 kpts
 Kpt  Band  Eigenvalues  Occupancy
  0    78     -0.21772    0.22222
  0    79     -0.11852    0.22222
[...]
 19 Li    0.00156    0.00000    0.01672
 20 N    -0.00009    0.00000   -0.00876
 21 N     0.00011    0.00000   -0.00923
 22 Li    0.00003   -0.00000   -0.03708
 23 Li    0.00002    0.00000   -0.03763
 24 N    -0.00009    0.00000   -0.00876
 25 N     0.00011    0.00000   -0.00923
 26 Li    0.00003    0.00000   -0.03708
 27 Li    0.00002   -0.00000   -0.03763
 28 Li   -0.00073    0.00000   -0.00838
 29 Li    0.00093    0.00000   -0.00835
 30 Li   -0.00073    0.00000   -0.00838
 31 Li    0.00093    0.00000   -0.00835
 32 Li   -0.00010    0.00000    0.00578
 33 Li   -0.00010    0.00000    0.00437
 34 Li   -0.00010    0.00000    0.00578
 35 Li   -0.00010    0.00000    0.00437
 36 N     0.00881    0.00000    0.00920
 37 N    -0.00881    0.00000    0.00922
 38 Li   -0.00042   -0.00000   -0.00508
 39 Li    0.00042    0.00000   -0.00507
 40 N     0.00881    0.00000    0.00921
 41 N    -0.00881    0.00000    0.00922
 42 Li   -0.00042    0.00000   -0.00508
 43 Li    0.00042   -0.00000   -0.00507
 44 Li    0.00010    0.00000   -0.00815
 45 Li    0.00009    0.00000   -0.00665
 46 Li    0.00010    0.00000   -0.00815
 47 Li    0.00009    0.00000   -0.00665
 48 Li   -0.00102    0.00000    0.00254
 49 Li    0.00082    0.00000    0.00254
 50 Li   -0.00102    0.00000    0.00254
 51 Li    0.00082    0.00000    0.00254
 52 N    -0.00003    0.00000   -0.02290
 53 N     0.00005    0.00000   -0.02208
 54 Li   -0.00002    0.00000    0.02827
 55 Li   -0.00002   -0.00000    0.02882
 56 N    -0.00003    0.00000   -0.02290
 57 N     0.00005    0.00000   -0.02208
 58 Li   -0.00002   -0.00000    0.02827
 59 Li   -0.00002    0.00000    0.02882
 60 Li   -0.00150    0.00000   -0.02767
 61 Li    0.00162    0.00000   -0.02767
 62 Li   -0.00150    0.00000   -0.02767
 63 Li    0.00162    0.00000   -0.02767
 64 Li   -0.00011    0.00000   -0.00373
 65 Li   -0.00011    0.00000   -0.00709
 66 Li   -0.00011    0.00000   -0.00373
 67 Li   -0.00011    0.00000   -0.00709
 68 N     0.00799    0.00000    0.01246
 69 N    -0.00795    0.00000    0.01245
 70 Li    0.00035    0.00000   -0.04902
 71 Li   -0.00027   -0.00000   -0.04902
 72 N     0.00799    0.00000    0.01246
 73 N    -0.00795    0.00000    0.01245
 74 Li    0.00035   -0.00000   -0.04902
 75 Li   -0.00027    0.00000   -0.04902
 76 Li   -0.00007    0.00000    0.00477
 77 Li   -0.00006    0.00000    0.00258
 78 Li   -0.00007    0.00000    0.00477
 79 Li   -0.00006    0.00000    0.00258

System changes: positions 

Initializing position-dependent things.

Density initialized from wave functions
     .----------------.  
    /|                |  
   / |                |  
  /  |     Li       Li|  
 *   |                |  
 |   |   Li       Li  |  
 |   |                |  
 |   |                |  
 |   |                |  
 |   |                |  
 |   |                |  
 |   |                |  
 |   |                |  
 |   |                |  
 |   |                |  
 |   |                |  
 |   |                |  
 |   |                |  
 |   |                |  
 |   |                |  
 |   |  Li Li    Li Li|  
 |   | N        N     |  
 |   |Li LiLi  Li LiLi|  
 |   N        N       |  
 |   | LiLi Li  LiLi Li  
 |   |     N        N |  
 |   Li   Li  Li   Li |  
 |   | LiN      LiN   |  
 |   |  Li Li    Li Li|  
 |   LiN      LiN     |  
 |   |Li Li    Li Li  |  
 |   N     Li N     Li|  
 |   | Li   Li  Li   Li  
 |   |   LiN      LiN |  
 |   Li   Li  Li   Li |  
 |   | LiN      LiN   |  
 |   .-----Li-------Li.  
 |  /LiNLi    LiNLi  /   
 | /     Li       Li/    
 |/  NLi      NLi  /     
 *----------------*      

Positions:
   0 Li     3.435251    0.000000   -0.632659    ( 0.0000,  0.0000,  0.0000)
   1 Li     6.870794    0.000000   -0.631970    ( 0.0000,  0.0000,  0.0000)
   2 Li     3.435251    3.658360   -0.632659    ( 0.0000,  0.0000,  0.0000)
   3 Li     6.870794    3.658360   -0.631971    ( 0.0000,  0.0000,  0.0000)
   4 N      1.719372    0.000000    0.436432    ( 0.0000,  0.0000,  0.0000)
   5 N      5.151146    0.000000    0.436442    ( 0.0000,  0.0000,  0.0000)
   6 Li     1.718181    1.829180    0.352333    ( 0.0000,  0.0000,  0.0000)
   7 Li     5.152352    1.829180    0.352351    ( 0.0000,  0.0000,  0.0000)
   8 N      1.719372    3.658360    0.436432    ( 0.0000,  0.0000,  0.0000)
   9 N      5.151146    3.658360    0.436442    ( 0.0000,  0.0000,  0.0000)
  10 Li     1.718181    5.487540    0.352333    ( 0.0000,  0.0000,  0.0000)
  11 Li     5.152352    5.487540    0.352351    ( 0.0000,  0.0000,  0.0000)
  12 Li     3.435261    0.000000    1.487436    ( 0.0000,  0.0000,  0.0000)
  13 Li     6.870816    0.000000    1.486885    ( 0.0000,  0.0000,  0.0000)
  14 Li     3.435261    3.658360    1.487436    ( 0.0000,  0.0000,  0.0000)
  15 Li     6.870817    3.658360    1.486885    ( 0.0000,  0.0000,  0.0000)
  16 Li     1.717506    0.000000    2.668707    ( 0.0000,  0.0000,  0.0000)
  17 Li     5.153044    0.000000    2.668706    ( 0.0000,  0.0000,  0.0000)
  18 Li     1.717506    3.658360    2.668707    ( 0.0000,  0.0000,  0.0000)
  19 Li     5.153044    3.658360    2.668706    ( 0.0000,  0.0000,  0.0000)
  20 N      3.435267    0.000000    3.724782    ( 0.0000,  0.0000,  0.0000)
  21 N      6.870849    0.000000    3.724947    ( 0.0000,  0.0000,  0.0000)
  22 Li     3.435265    1.829180    3.729100    ( 0.0000,  0.0000,  0.0000)
  23 Li     6.870829    1.829180    3.729394    ( 0.0000,  0.0000,  0.0000)
  24 N      3.435267    3.658360    3.724782    ( 0.0000,  0.0000,  0.0000)
  25 N      6.870849    3.658360    3.724947    ( 0.0000,  0.0000,  0.0000)
  26 Li     3.435265    5.487540    3.729100    ( 0.0000,  0.0000,  0.0000)
  27 Li     6.870829    5.487540    3.729394    ( 0.0000,  0.0000,  0.0000)
  28 Li     1.717551    0.000000    4.775648    ( 0.0000,  0.0000,  0.0000)
  29 Li     5.153036    0.000000    4.775640    ( 0.0000,  0.0000,  0.0000)
  30 Li     1.717551    3.658360    4.775648    ( 0.0000,  0.0000,  0.0000)
  31 Li     5.153036    3.658360    4.775640    ( 0.0000,  0.0000,  0.0000)
  32 Li     3.435317    0.000000    5.948924    ( 0.0000,  0.0000,  0.0000)
  33 Li     6.870864    0.000000    5.949361    ( 0.0000,  0.0000,  0.0000)
  34 Li     3.435317    3.658360    5.948924    ( 0.0000,  0.0000,  0.0000)
  35 Li     6.870864    3.658360    5.949361    ( 0.0000,  0.0000,  0.0000)
  36 N      1.719436    0.000000    7.003449    ( 0.0000,  0.0000,  0.0000)
  37 N      5.151217    0.000000    7.003447    ( 0.0000,  0.0000,  0.0000)
  38 Li     1.718447    1.829180    7.003016    ( 0.0000,  0.0000,  0.0000)
  39 Li     5.152206    1.829180    7.003013    ( 0.0000,  0.0000,  0.0000)
  40 N      1.719436    3.658360    7.003449    ( 0.0000,  0.0000,  0.0000)
  41 N      5.151217    3.658360    7.003447    ( 0.0000,  0.0000,  0.0000)
  42 Li     1.718447    5.487540    7.003016    ( 0.0000,  0.0000,  0.0000)
  43 Li     5.152206    5.487540    7.003013    ( 0.0000,  0.0000,  0.0000)
  44 Li     3.435339    0.000000    8.054171    ( 0.0000,  0.0000,  0.0000)
  45 Li     6.870888    0.000000    8.053698    ( 0.0000,  0.0000,  0.0000)
  46 Li     3.435339    3.658360    8.054171    ( 0.0000,  0.0000,  0.0000)
  47 Li     6.870888    3.658360    8.053698    ( 0.0000,  0.0000,  0.0000)
  48 Li     1.717608    0.000000    9.219265    ( 0.0000,  0.0000,  0.0000)
  49 Li     5.153110    0.000000    9.219268    ( 0.0000,  0.0000,  0.0000)
  50 Li     1.717608    3.658360    9.219265    ( 0.0000,  0.0000,  0.0000)
  51 Li     5.153110    3.658360    9.219268    ( 0.0000,  0.0000,  0.0000)
  52 N      3.435357    0.000000   10.267065    ( 0.0000,  0.0000,  0.0000)
  53 N      6.870930    0.000000   10.266999    ( 0.0000,  0.0000,  0.0000)
  54 Li     3.435373    1.829180   10.265430    ( 0.0000,  0.0000,  0.0000)
  55 Li     6.870933    1.829180   10.265144    ( 0.0000,  0.0000,  0.0000)
  56 N      3.435357    3.658360   10.267065    ( 0.0000,  0.0000,  0.0000)
  57 N      6.870930    3.658360   10.266998    ( 0.0000,  0.0000,  0.0000)
  58 Li     3.435373    5.487540   10.265430    ( 0.0000,  0.0000,  0.0000)
  59 Li     6.870933    5.487540   10.265144    ( 0.0000,  0.0000,  0.0000)
  60 Li     1.717613    0.000000   11.320756    ( 0.0000,  0.0000,  0.0000)
  61 Li     5.153146    0.000000   11.320754    ( 0.0000,  0.0000,  0.0000)
  62 Li     1.717613    3.658360   11.320756    ( 0.0000,  0.0000,  0.0000)
  63 Li     5.153146    3.658360   11.320753    ( 0.0000,  0.0000,  0.0000)
  64 Li     3.435392    0.000000   12.481797    ( 0.0000,  0.0000,  0.0000)
  65 Li     6.870943    0.000000   12.482325    ( 0.0000,  0.0000,  0.0000)
  66 Li     3.435392    3.658360   12.481797    ( 0.0000,  0.0000,  0.0000)
  67 Li     6.870943    3.658360   12.482325    ( 0.0000,  0.0000,  0.0000)
  68 N      1.719514    0.000000   13.516717    ( 0.0000,  0.0000,  0.0000)
  69 N      5.151283    0.000000   13.516714    ( 0.0000,  0.0000,  0.0000)
  70 Li     1.718309    1.829180   13.616028    ( 0.0000,  0.0000,  0.0000)
  71 Li     5.152473    1.829180   13.616023    ( 0.0000,  0.0000,  0.0000)
  72 N      1.719514    3.658360   13.516717    ( 0.0000,  0.0000,  0.0000)
  73 N      5.151283    3.658360   13.516714    ( 0.0000,  0.0000,  0.0000)
  74 Li     1.718309    5.487540   13.616028    ( 0.0000,  0.0000,  0.0000)
  75 Li     5.152473    5.487540   13.616023    ( 0.0000,  0.0000,  0.0000)
  76 Li    -0.000143    0.000000   14.597991    ( 0.0000,  0.0000,  0.0000)
  77 Li     3.435409    0.000000   14.598680    ( 0.0000,  0.0000,  0.0000)
  78 Li    -0.000143    3.658360   14.597991    ( 0.0000,  0.0000,  0.0000)
  79 Li     3.435409    3.658360   14.598680    ( 0.0000,  0.0000,  0.0000)

Unit cell:
           periodic     x           y           z      points  spacing
  1. axis:    yes    6.871100    0.000000    0.000000    35     0.1963
  2. axis:    yes    0.000000    7.316720    0.000000    36     0.2032
  3. axis:    yes    0.000000    0.000000   28.925800   144     0.2009

  Lengths:   6.871100   7.316720  28.925800
  Angles:   90.000000  90.000000  90.000000

Effective grid spacing dv^(1/3) = 0.2001

                     log10-error:    total        iterations:
           time      wfs    density  energy       fermi  poisson
iter:   1  05:47:16  -3.12         -283.976765    0             
iter:   2  05:47:23  -4.47  -2.63  -283.971072    0             
iter:   3  05:47:30  -4.07  -2.74  -283.963943    0             
iter:   4  05:47:38  -5.39  -3.10  -283.963780    0             
iter:   5  05:47:45  -6.13  -3.31  -283.963756    0             
iter:   6  05:47:53  -5.73  -3.40  -283.963608    0             
iter:   7  05:48:00  -6.65  -3.50  -283.963594    0             
iter:   8  05:48:08  -6.57  -3.71  -283.963597    0             
iter:   9  05:48:15  -6.56  -4.07  -283.963594    0             
iter:  10  05:48:23  -6.63  -4.03  -283.963594    0             
iter:  11  05:48:30  -7.44  -4.20  -283.963589    0             
iter:  12  05:48:38  -7.82  -4.42  -283.963589    0             
iter:  13  05:48:46  -8.44  -4.50  -283.963590    0             

Converged after 13 iterations.

Dipole moment: (0.096352, -0.000000, -88.173665) |e|*Ang

Energy contributions relative to reference atoms: (reference = -41801.699299)

Kinetic:       +304.587231
Potential:     -210.525051
External:        +0.000000
XC:            -376.171374
Entropy (-ST):   -0.000000
Local:           -1.854395
--------------------------
Free energy:   -283.963590
Extrapolated:  -283.963590

Fermi level: 0.37040

Showing only first 2 kpts
 Kpt  Band  Eigenvalues  Occupancy
  0    78     -0.21681    0.22222
  0    79     -0.07760    0.22222
  0    80      0.60996    0.00000
  0    81      0.76649    0.00000

  1    78     -0.28800    0.44444
  1    79     -0.15270    0.44444
  1    80      1.05370    0.00000
  1    81      1.12953    0.00000


Gap: 0.688 eV
Transition (v -> c):
  (s=0, k=0, n=79, [0.00, 0.00, 0.00]) -> (s=0, k=0, n=80, [0.00, 0.00, 0.00])

Forces in eV/Ang:
  0 Li    0.00005    0.00000   -0.02858
  1 Li    0.00006    0.00000   -0.02852
  2 Li    0.00005    0.00000   -0.02858
  3 Li    0.00005    0.00000   -0.02852
  4 N     0.00259    0.00000   -0.02697
  5 N    -0.00255    0.00000   -0.02698
  6 Li    0.00075    0.00000    0.03631
  7 Li   -0.00081   -0.00000    0.03630
  8 N     0.00259    0.00000   -0.02697
  9 N    -0.00255    0.00000   -0.02698
 10 Li    0.00075   -0.00000    0.03631
 11 Li   -0.00081    0.00000    0.03630
 12 Li    0.00004    0.00000   -0.01736
 13 Li    0.00005    0.00000   -0.01741
 14 Li    0.00004    0.00000   -0.01736
 15 Li    0.00005    0.00000   -0.01741
 16 Li    0.00031    0.00000    0.01509
 17 Li   -0.00037    0.00000    0.01511
 18 Li    0.00031    0.00000    0.01509
 19 Li   -0.00037    0.00000    0.01511
 20 N    -0.00001    0.00000   -0.01760
 21 N     0.00003    0.00000   -0.01757
 22 Li    0.00002   -0.00000   -0.02896
 23 Li    0.00002    0.00000   -0.02941
 24 N    -0.00001    0.00000   -0.01759
 25 N     0.00003    0.00000   -0.01757
 26 Li    0.00002    0.00000   -0.02896
 27 Li    0.00002   -0.00000   -0.02941
 28 Li    0.00087    0.00000   -0.00501
 29 Li   -0.00077    0.00000   -0.00502
 30 Li    0.00087    0.00000   -0.00501
 31 Li   -0.00077    0.00000   -0.00502
 32 Li   -0.00007    0.00000    0.00754
 33 Li   -0.00005    0.00000    0.00942
 34 Li   -0.00007    0.00000    0.00754
 35 Li   -0.00005    0.00000    0.00942
 36 N     0.00169    0.00000    0.00284
 37 N    -0.00167    0.00000    0.00284
 38 Li    0.00026   -0.00000   -0.00403
 39 Li   -0.00026    0.00000   -0.00402
 40 N     0.00169    0.00000    0.00284
 41 N    -0.00167    0.00000    0.00284
 42 Li    0.00026    0.00000   -0.00403
 43 Li   -0.00026   -0.00000   -0.00402
 44 Li    0.00004    0.00000   -0.00737
 45 Li    0.00005    0.00000   -0.00931
 46 Li    0.00004    0.00000   -0.00737
 47 Li    0.00005    0.00000   -0.00931
 48 Li    0.00075    0.00000   -0.00443
 49 Li   -0.00084    0.00000   -0.00442
 50 Li    0.00075    0.00000   -0.00443
 51 Li   -0.00084    0.00000   -0.00442
 52 N    -0.00002    0.00000   -0.01519
 53 N    -0.00000    0.00000   -0.01507
 54 Li   -0.00002    0.00000    0.01790
 55 Li   -0.00001   -0.00000    0.01838
 56 N    -0.00002    0.00000   -0.01519
 57 N    -0.00000    0.00000   -0.01508
 58 Li   -0.00002   -0.00000    0.01790
 59 Li   -0.00001    0.00000    0.01838
 60 Li    0.00046    0.00000   -0.03007
 61 Li   -0.00041    0.00000   -0.03008
 62 Li    0.00046    0.00000   -0.03007
 63 Li   -0.00041    0.00000   -0.03008
 64 Li   -0.00005    0.00000   -0.01021
 65 Li   -0.00005    0.00000   -0.00975
 66 Li   -0.00005    0.00000   -0.01021
 67 Li   -0.00005    0.00000   -0.00975
 68 N     0.00250    0.00000    0.01709
 69 N    -0.00254    0.00000    0.01708
 70 Li    0.00080   -0.00000   -0.04884
 71 Li   -0.00074    0.00000   -0.04884
 72 N     0.00250    0.00000    0.01709
 73 N    -0.00254    0.00000    0.01708
 74 Li    0.00080    0.00000   -0.04884
 75 Li   -0.00074   -0.00000   -0.04884
 76 Li   -0.00005    0.00000    0.00953
 77 Li   -0.00005    0.00000    0.00934
 78 Li   -0.00005    0.00000    0.00953
 79 Li   -0.00005    0.00000    0.00934

Timing:                                      incl.     excl.
-------------------------------------------------------------------
Density initialized from wave functions:    77.892    76.953   1.6% ||
 Symmetrize density:                         0.939     0.939   0.0% |
Forces:                                    286.315   286.315   5.8% |-|
Hamiltonian:                                72.882     0.566   0.0% |
 Atomic:                                     7.427     3.931   0.1% |
  XC Correction:                             3.496     3.496   0.1% |
 Calculate atomic Hamiltonians:             51.902    51.902   1.0% |
 Communicate:                                2.200     2.200   0.0% |
 Initialize Hamiltonian:                     0.001     0.001   0.0% |
 Poisson:                                    0.143     0.143   0.0% |
 XC 3D grid:                                10.643    10.643   0.2% |
LCAO initialization:                        11.327     0.069   0.0% |
 LCAO eigensolver:                           2.317     0.003   0.0% |
  Calculate projections:                     0.002     0.002   0.0% |
  DenseAtomicCorrection:                     0.006     0.006   0.0% |
  Distribute overlap matrix:                 1.154     1.154   0.0% |
  Orbital Layouts:                           0.057     0.057   0.0% |
  Potential matrix:                          1.081     1.081   0.0% |
  Sum over cells:                            0.013     0.013   0.0% |
 LCAO to grid:                               7.336     7.336   0.1% |
 Set positions (LCAO WFS):                   1.606     0.624   0.0% |
  Basic WFS set positions:                   0.007     0.007   0.0% |
  Basis functions set positions:             0.001     0.001   0.0% |
  P tci:                                     0.458     0.458   0.0% |
  ST tci:                                    0.144     0.144   0.0% |
  mktci:                                     0.372     0.372   0.0% |
PWDescriptor:                                0.487     0.487   0.0% |
Redistribute:                                0.079     0.079   0.0% |
SCF-cycle:                                4446.696   139.168   2.8% ||
 Davidson:                                1657.443   555.761  11.2% |---|
  Apply H:                                 219.570   215.440   4.3% |-|
   HMM T:                                    4.129     4.129   0.1% |
  Subspace diag:                           292.747     0.872   0.0% |
   calc_h_matrix:                          243.716    13.298   0.3% |
    Apply H:                               230.418   222.931   4.5% |-|
     HMM T:                                  7.487     7.487   0.2% |
   diagonalize:                              9.043     9.043   0.2% |
   rotate_psi:                              39.117    39.117   0.8% |
  calc. matrices:                          515.623   107.676   2.2% ||
   Apply H:                                407.947   399.334   8.1% |--|
    HMM T:                                   8.613     8.613   0.2% |
  diagonalize:                              21.300    21.300   0.4% |
  rotate_psi:                               52.442    52.442   1.1% |
 Density:                                 1349.602     0.043   0.0% |
  Atomic density matrices:                   9.484     9.484   0.2% |
  Mix:                                    1195.521  1195.521  24.1% |---------|
  Multipole moments:                         0.826     0.826   0.0% |
  Pseudo density:                          143.729   125.799   2.5% ||
   Symmetrize density:                      17.930    17.930   0.4% |
 Hamiltonian:                             1291.129     9.235   0.2% |
  Atomic:                                  138.463    74.950   1.5% ||
   XC Correction:                           63.513    63.513   1.3% ||
  Calculate atomic Hamiltonians:           908.504   908.504  18.3% |------|
  Communicate:                              38.640    38.640   0.8% |
  Poisson:                                   2.839     2.839   0.1% |
  XC 3D grid:                              193.448   193.448   3.9% |-|
 Orthonormalize:                             9.353     0.023   0.0% |
  calc_s_matrix:                             0.489     0.489   0.0% |
  inverse-cholesky:                          0.417     0.417   0.0% |
  projections:                               7.229     7.229   0.1% |
  rotate_psi_s:                              1.195     1.195   0.0% |
Set symmetry:                                0.002     0.002   0.0% |
Other:                                      64.090    64.090   1.3% ||
-------------------------------------------------------------------
Total:                                              4959.771 100.0%

Memory usage: 552.39 MiB
Date: Sun Jul 25 05:48:54 2021
