
  ___ ___ ___ _ _ _  
 |   |   |_  | | | | 
 | | | | | . | | | | 
 |__ |  _|___|_____|  20.1.0
 |___|_|             

User:   jywang@lbnode02
Date:   Wed Jul  7 18:37:38 2021
Arch:   x86_64
Pid:    241001
Python: 3.7.7
gpaw:   /home/jywang/intel/intelpython3/lib/python3.7/site-packages/gpaw
_gpaw:  /home/jywang/intel/intelpython3/lib/python3.7/site-packages/
        _gpaw.cpython-37m-x86_64-linux-gnu.so
ase:    /home/jywang/intel/intelpython3/lib/python3.7/site-packages/ase (version 3.20.1)
numpy:  /home/jywang/intel/intelpython3/lib/python3.7/site-packages/numpy (version 1.17.5)
scipy:  /home/jywang/intel/intelpython3/lib/python3.7/site-packages/scipy (version 1.3.3)
libxc:  4.3.4
units:  Angstrom and eV
cores: 32
OMP_NUM_THREADS: 1

Input parameters:
  convergence: {eigenstates: 1e-08}
  kpts: [3 2 1]
  mode: {ecut: 450.00000000000006,
         gammacentered: False,
         name: pw}
  occupations: {name: fermi-dirac,
                width: 0.01}
  random: True
  xc: PBE

System changes: positions, numbers, cell, pbc, initial_charges, initial_magmoms 

Initialize ...

Li-setup:
  name: Lithium
  id: 830b4218f175192f93f959cfc0aad614
  Z: 3
  valence: 1
  core: 2
  charge: 0.0
  file: /home/jywang/gpaw_paws/gpaw-setups-0.9.20000/Li.PBE.gz
  compensation charges: gauss, rc=0.33, lmax=2
  cutoffs: 1.91(filt), 2.55(core),
  valence states:
                energy  radius
    2s(1.00)    -2.874   1.058
    2p(0.00)    -1.090   1.058
    *s          24.337   1.058

  Using partial waves for Li as LCAO basis

N-setup:
  name: Nitrogen
  id: f7500608b86eaa90eef8b1d9a670dc53
  Z: 7
  valence: 5
  core: 2
  charge: 0.0
  file: /home/jywang/gpaw_paws/gpaw-setups-0.9.20000/N.PBE.gz
  compensation charges: gauss, rc=0.18, lmax=2
  cutoffs: 1.11(filt), 0.96(core),
  valence states:
                energy  radius
    2s(2.00)   -18.583   0.603
    2p(3.00)    -7.089   0.529
    *s           8.629   0.603
    *p          20.123   0.529
    *d           0.000   0.577

  Using partial waves for N as LCAO basis

Reference energy: -75243.058738

Spin-paired calculation

Occupation numbers:
  Fermi-Dirac: width=0.0100 eV

Convergence criteria:
  Maximum total energy change: 0.0005 eV / electron
  Maximum integral of absolute density change: 0.0001 electrons
  Maximum integral of absolute eigenstate change: 1e-08 eV^2
  Maximum number of iterations: 333

Symmetries present (total): 2

  ( 1  0  0)  (-1  0  0)
  ( 0  1  0)  ( 0  1  0)
  ( 0  0  1)  ( 0  0  1)

6 k-points: 3 x 2 x 1 Monkhorst-Pack grid
2 k-points in the irreducible part of the Brillouin zone
       k-points in crystal coordinates                weights
   0:     0.00000000    0.25000000    0.00000000          2/6
   1:     0.33333333    0.25000000    0.00000000          4/6

Wave functions: Plane wave expansion
  Cutoff energy: 450.000 eV
  Number of coefficients (min, max): 57469, 57511
  Pulay-stress correction: 0.000000 eV/Ang^3 (de/decut=0.000000)
  Using FFTW library
  ScaLapack parameters: grid=1x1, blocksize=None
  Wavefunction extrapolation:
    Improved wavefunction reuse through dual PAW basis 

Eigensolver
   Davidson(niter=2, smin=None, normalize=True) 

Densities:
  Coarse grid: 36*60*150 grid
  Fine grid: 72*120*300 grid
  Total Charge: 0.000000 

Density mixing:
  Method: separate
  Backend: pulay
  Linear mixing parameter: 0.05
  Mixing with 5 old densities
  Damping of long wave oscillations: 50 

Hamiltonian:
  XC and Coulomb potentials evaluated on a 72*120*300 grid
  Using the PBE Exchange-Correlation functional
 

XC parameters: PBE with 2 nearest neighbor stencil

Memory estimate:
  Process memory now: 230.16 MiB
  Calculator: 346.26 MiB
    Density: 10.40 MiB
      Arrays: 4.07 MiB
      Localized functions: 4.77 MiB
      Mixer: 1.57 MiB
    Hamiltonian: 2.78 MiB
      Arrays: 2.66 MiB
      XC: 0.00 MiB
      Poisson: 0.00 MiB
      vbar: 0.12 MiB
    Wavefunctions: 333.08 MiB
      Arrays psit_nG: 155.33 MiB
      Eigensolver: 164.50 MiB
      Projections: 0.17 MiB
      Projectors: 0.47 MiB
      PW-descriptor: 12.62 MiB

Total number of cores used: 32
Parallelization over k-points: 2
Domain decomposition: 1 x 2 x 8

Number of atoms: 144
Number of atomic orbitals: 576
Number of bands in calculation: 177
Number of valence electrons: 288
Bands to converge: occupied

... initialized

Initializing position-dependent things.

Density initialized from atomic densities
Creating initial wave functions:
  177 bands from LCAO basis set

        .-----------------.  
       /|                 |  
      / |                 |  
     /  |                 |  
    /   |                 |  
   /    |                 |  
  /     |                 |  
 *      |                 |  
 |      |                 |  
 |      |                 |  
 |      |                 |  
 |      |                 |  
 |      |                 |  
 |      |                 |  
 |      |                 |  
 |      |                 |  
 |      |                 |  
 |      |                 |  
 |      |                 |  
 |     Li       Li        |  
 |      |                 |  
 |    NN| LiLi NN  LiLi   |  
 |  LiLi|    LiLi         |  
 | LiLi |   LiLi          |  
 |N N  Lii N N  Lii       |  
 Li   NN| LiLi NN  LiLi   |  
 | LiiLi|   LiiLi         |  
 |LiiLi |  LiiLi          |  
 |N    Li  N    Li        |  
 Li N NNLiLiLN NNLiLiLi   |  
 | LiiLi|   LiiLi         |  
 |Lii   |  Lii            |  
 |N  LiLi  N  LiLi        |  
 |  N NNLiLiLN NNLiLiLi   |  
 LiLii  | LiLii           |  
 |Lii Li|  Lii Li         |  
 |   LiLi     LiLi        |  
 |N N NLiiLN-N-NLiiLi-----.  
 LiLii /  LiLii          /   
 |Li  /    Li           /    
 | Li/      Li         /     
 |N /  Li  N    Li    /      
 Li/      Li         /       
 |/                 /        
 *-----------------*         

Positions:
   0 Li     0.000000    0.000000    1.717733    ( 0.0000,  0.0000,  0.0000)
   1 Li     3.658360    0.000000    1.717733    ( 0.0000,  0.0000,  0.0000)
   2 N      0.000000    1.983513    1.717733    ( 0.0000,  0.0000,  0.0000)
   3 Li     1.829180    1.983513    1.717733    ( 0.0000,  0.0000,  0.0000)
   4 N      3.658360    1.983513    1.717733    ( 0.0000,  0.0000,  0.0000)
   5 Li     5.487540    1.983513    1.717733    ( 0.0000,  0.0000,  0.0000)
   6 Li     0.000000    3.967027    1.717733    ( 0.0000,  0.0000,  0.0000)
   7 Li     3.658360    3.967027    1.717733    ( 0.0000,  0.0000,  0.0000)
   8 Li     0.000000    5.950600    1.717733    ( 0.0000,  0.0000,  0.0000)
   9 Li     3.658360    5.950600    1.717733    ( 0.0000,  0.0000,  0.0000)
  10 N      0.000000    7.934113    1.717733    ( 0.0000,  0.0000,  0.0000)
  11 Li     1.829180    7.934113    1.717733    ( 0.0000,  0.0000,  0.0000)
  12 N      3.658360    7.934113    1.717733    ( 0.0000,  0.0000,  0.0000)
  13 Li     5.487540    7.934113    1.717733    ( 0.0000,  0.0000,  0.0000)
  14 Li     0.000000    9.917627    1.717733    ( 0.0000,  0.0000,  0.0000)
  15 Li     3.658360    9.917627    1.717733    ( 0.0000,  0.0000,  0.0000)
  16 Li     0.000000    0.991727    3.435436    ( 0.0000,  0.0000,  0.0000)
  17 Li     3.658360    0.991727    3.435436    ( 0.0000,  0.0000,  0.0000)
  18 Li     0.000000    2.975300    3.435436    ( 0.0000,  0.0000,  0.0000)
  19 Li     3.658360    2.975300    3.435436    ( 0.0000,  0.0000,  0.0000)
  20 N      0.000000    4.958813    3.435436    ( 0.0000,  0.0000,  0.0000)
  21 Li     1.829180    4.958813    3.435436    ( 0.0000,  0.0000,  0.0000)
  22 N      3.658360    4.958813    3.435436    ( 0.0000,  0.0000,  0.0000)
  23 Li     5.487540    4.958813    3.435436    ( 0.0000,  0.0000,  0.0000)
  24 Li     0.000000    6.942327    3.435436    ( 0.0000,  0.0000,  0.0000)
  25 Li     3.658360    6.942327    3.435436    ( 0.0000,  0.0000,  0.0000)
  26 Li     0.000000    8.925900    3.435436    ( 0.0000,  0.0000,  0.0000)
  27 Li     3.658360    8.925900    3.435436    ( 0.0000,  0.0000,  0.0000)
  28 N      0.000000   10.909413    3.435436    ( 0.0000,  0.0000,  0.0000)
  29 Li     1.829180   10.909413    3.435436    ( 0.0000,  0.0000,  0.0000)
  30 N      3.658360   10.909413    3.435436    ( 0.0000,  0.0000,  0.0000)
  31 Li     5.487540   10.909413    3.435436    ( 0.0000,  0.0000,  0.0000)
  32 Li     0.000000    0.000000    5.153169    ( 0.0000,  0.0000,  0.0000)
  33 Li     3.658360    0.000000    5.153169    ( 0.0000,  0.0000,  0.0000)
  34 N      0.000000    1.983513    5.153169    ( 0.0000,  0.0000,  0.0000)
  35 Li     1.829180    1.983513    5.153169    ( 0.0000,  0.0000,  0.0000)
  36 N      3.658360    1.983513    5.153169    ( 0.0000,  0.0000,  0.0000)
  37 Li     5.487540    1.983513    5.153169    ( 0.0000,  0.0000,  0.0000)
  38 Li     0.000000    3.967027    5.153169    ( 0.0000,  0.0000,  0.0000)
  39 Li     3.658360    3.967027    5.153169    ( 0.0000,  0.0000,  0.0000)
  40 Li     0.000000    5.950600    5.153169    ( 0.0000,  0.0000,  0.0000)
  41 Li     3.658360    5.950600    5.153169    ( 0.0000,  0.0000,  0.0000)
  42 N      0.000000    7.934113    5.153169    ( 0.0000,  0.0000,  0.0000)
  43 Li     1.829180    7.934113    5.153169    ( 0.0000,  0.0000,  0.0000)
  44 N      3.658360    7.934113    5.153169    ( 0.0000,  0.0000,  0.0000)
  45 Li     5.487540    7.934113    5.153169    ( 0.0000,  0.0000,  0.0000)
  46 Li     0.000000    9.917627    5.153169    ( 0.0000,  0.0000,  0.0000)
  47 Li     3.658360    9.917627    5.153169    ( 0.0000,  0.0000,  0.0000)
  48 Li     0.000000    0.991727    6.870901    ( 0.0000,  0.0000,  0.0000)
  49 Li     3.658360    0.991727    6.870901    ( 0.0000,  0.0000,  0.0000)
  50 Li     0.000000    2.975300    6.870901    ( 0.0000,  0.0000,  0.0000)
  51 Li     3.658360    2.975300    6.870901    ( 0.0000,  0.0000,  0.0000)
  52 N      0.000000    4.958813    6.870901    ( 0.0000,  0.0000,  0.0000)
  53 Li     1.829180    4.958813    6.870901    ( 0.0000,  0.0000,  0.0000)
  54 N      3.658360    4.958813    6.870901    ( 0.0000,  0.0000,  0.0000)
  55 Li     5.487540    4.958813    6.870901    ( 0.0000,  0.0000,  0.0000)
  56 Li     0.000000    6.942327    6.870901    ( 0.0000,  0.0000,  0.0000)
  57 Li     3.658360    6.942327    6.870901    ( 0.0000,  0.0000,  0.0000)
  58 Li     0.000000    8.925900    6.870901    ( 0.0000,  0.0000,  0.0000)
  59 Li     3.658360    8.925900    6.870901    ( 0.0000,  0.0000,  0.0000)
  60 N      0.000000   10.909413    6.870901    ( 0.0000,  0.0000,  0.0000)
  61 Li     1.829180   10.909413    6.870901    ( 0.0000,  0.0000,  0.0000)
  62 N      3.658360   10.909413    6.870901    ( 0.0000,  0.0000,  0.0000)
  63 Li     5.487540   10.909413    6.870901    ( 0.0000,  0.0000,  0.0000)
  64 Li     0.000000    0.000000    8.588604    ( 0.0000,  0.0000,  0.0000)
  65 Li     3.658360    0.000000    8.588604    ( 0.0000,  0.0000,  0.0000)
  66 N      0.000000    1.983513    8.588604    ( 0.0000,  0.0000,  0.0000)
  67 Li     1.829180    1.983513    8.588604    ( 0.0000,  0.0000,  0.0000)
  68 N      3.658360    1.983513    8.588604    ( 0.0000,  0.0000,  0.0000)
  69 Li     5.487540    1.983513    8.588604    ( 0.0000,  0.0000,  0.0000)
  70 Li     0.000000    3.967027    8.588604    ( 0.0000,  0.0000,  0.0000)
  71 Li     3.658360    3.967027    8.588604    ( 0.0000,  0.0000,  0.0000)
  72 Li     0.000000    5.950600    8.588604    ( 0.0000,  0.0000,  0.0000)
  73 Li     3.658360    5.950600    8.588604    ( 0.0000,  0.0000,  0.0000)
  74 N      0.000000    7.934113    8.588604    ( 0.0000,  0.0000,  0.0000)
  75 Li     1.829180    7.934113    8.588604    ( 0.0000,  0.0000,  0.0000)
  76 N      3.658360    7.934113    8.588604    ( 0.0000,  0.0000,  0.0000)
  77 Li     5.487540    7.934113    8.588604    ( 0.0000,  0.0000,  0.0000)
  78 Li     0.000000    9.917627    8.588604    ( 0.0000,  0.0000,  0.0000)
  79 Li     3.658360    9.917627    8.588604    ( 0.0000,  0.0000,  0.0000)
  80 Li     0.000000    0.991727   10.306337    ( 0.0000,  0.0000,  0.0000)
  81 Li     3.658360    0.991727   10.306337    ( 0.0000,  0.0000,  0.0000)
  82 Li     0.000000    2.975300   10.306337    ( 0.0000,  0.0000,  0.0000)
  83 Li     3.658360    2.975300   10.306337    ( 0.0000,  0.0000,  0.0000)
  84 N      0.000000    4.958813   10.306337    ( 0.0000,  0.0000,  0.0000)
  85 Li     1.829180    4.958813   10.306337    ( 0.0000,  0.0000,  0.0000)
  86 N      3.658360    4.958813   10.306337    ( 0.0000,  0.0000,  0.0000)
  87 Li     5.487540    4.958813   10.306337    ( 0.0000,  0.0000,  0.0000)
  88 Li     0.000000    6.942327   10.306337    ( 0.0000,  0.0000,  0.0000)
  89 Li     3.658360    6.942327   10.306337    ( 0.0000,  0.0000,  0.0000)
  90 Li     0.000000    8.925900   10.306337    ( 0.0000,  0.0000,  0.0000)
  91 Li     3.658360    8.925900   10.306337    ( 0.0000,  0.0000,  0.0000)
  92 N      0.000000   10.909413   10.306337    ( 0.0000,  0.0000,  0.0000)
  93 Li     1.829180   10.909413   10.306337    ( 0.0000,  0.0000,  0.0000)
  94 N      3.658360   10.909413   10.306337    ( 0.0000,  0.0000,  0.0000)
  95 Li     5.487540   10.909413   10.306337    ( 0.0000,  0.0000,  0.0000)
  96 Li     0.000000    0.000000   12.024070    ( 0.0000,  0.0000,  0.0000)
  97 Li     3.658360    0.000000   12.024070    ( 0.0000,  0.0000,  0.0000)
  98 N      0.000000    1.983513   12.024070    ( 0.0000,  0.0000,  0.0000)
  99 Li     1.829180    1.983513   12.024070    ( 0.0000,  0.0000,  0.0000)
 100 N      3.658360    1.983513   12.024070    ( 0.0000,  0.0000,  0.0000)
 101 Li     5.487540    1.983513   12.024070    ( 0.0000,  0.0000,  0.0000)
 102 Li     0.000000    3.967027   12.024070    ( 0.0000,  0.0000,  0.0000)
 103 Li     3.658360    3.967027   12.024070    ( 0.0000,  0.0000,  0.0000)
 104 Li     0.000000    5.950600   12.024070    ( 0.0000,  0.0000,  0.0000)
 105 Li     3.658360    5.950600   12.024070    ( 0.0000,  0.0000,  0.0000)
 106 N      0.000000    7.934113   12.024070    ( 0.0000,  0.0000,  0.0000)
 107 Li     1.829180    7.934113   12.024070    ( 0.0000,  0.0000,  0.0000)
 108 N      3.658360    7.934113   12.024070    ( 0.0000,  0.0000,  0.0000)
 109 Li     5.487540    7.934113   12.024070    ( 0.0000,  0.0000,  0.0000)
 110 Li     0.000000    9.917627   12.024070    ( 0.0000,  0.0000,  0.0000)
 111 Li     3.658360    9.917627   12.024070    ( 0.0000,  0.0000,  0.0000)
 112 Li     0.000000    0.991727   13.741773    ( 0.0000,  0.0000,  0.0000)
 113 Li     3.658360    0.991727   13.741773    ( 0.0000,  0.0000,  0.0000)
 114 Li     0.000000    2.975300   13.741773    ( 0.0000,  0.0000,  0.0000)
 115 Li     3.658360    2.975300   13.741773    ( 0.0000,  0.0000,  0.0000)
 116 N      0.000000    4.958813   13.741773    ( 0.0000,  0.0000,  0.0000)
 117 Li     1.829180    4.958813   13.741773    ( 0.0000,  0.0000,  0.0000)
 118 N      3.658360    4.958813   13.741773    ( 0.0000,  0.0000,  0.0000)
 119 Li     5.487540    4.958813   13.741773    ( 0.0000,  0.0000,  0.0000)
 120 Li     0.000000    6.942327   13.741773    ( 0.0000,  0.0000,  0.0000)
 121 Li     3.658360    6.942327   13.741773    ( 0.0000,  0.0000,  0.0000)
 122 Li     0.000000    8.925900   13.741773    ( 0.0000,  0.0000,  0.0000)
 123 Li     3.658360    8.925900   13.741773    ( 0.0000,  0.0000,  0.0000)
 124 N      0.000000   10.909413   13.741773    ( 0.0000,  0.0000,  0.0000)
 125 Li     1.829180   10.909413   13.741773    ( 0.0000,  0.0000,  0.0000)
 126 N      3.658360   10.909413   13.741773    ( 0.0000,  0.0000,  0.0000)
 127 Li     5.487540   10.909413   13.741773    ( 0.0000,  0.0000,  0.0000)
 128 Li     0.000000    0.000000   15.459506    ( 0.0000,  0.0000,  0.0000)
 129 Li     3.658360    0.000000   15.459506    ( 0.0000,  0.0000,  0.0000)
 130 N      0.000000    1.983513   15.459506    ( 0.0000,  0.0000,  0.0000)
 131 Li     1.829180    1.983513   15.459506    ( 0.0000,  0.0000,  0.0000)
 132 N      3.658360    1.983513   15.459506    ( 0.0000,  0.0000,  0.0000)
 133 Li     5.487540    1.983513   15.459506    ( 0.0000,  0.0000,  0.0000)
 134 Li     0.000000    3.967027   15.459506    ( 0.0000,  0.0000,  0.0000)
 135 Li     3.658360    3.967027   15.459506    ( 0.0000,  0.0000,  0.0000)
 136 Li     0.000000    5.950600   15.459506    ( 0.0000,  0.0000,  0.0000)
 137 Li     3.658360    5.950600   15.459506    ( 0.0000,  0.0000,  0.0000)
 138 N      0.000000    7.934113   15.459506    ( 0.0000,  0.0000,  0.0000)
 139 Li     1.829180    7.934113   15.459506    ( 0.0000,  0.0000,  0.0000)
 140 N      3.658360    7.934113   15.459506    ( 0.0000,  0.0000,  0.0000)
 141 Li     5.487540    7.934113   15.459506    ( 0.0000,  0.0000,  0.0000)
 142 Li     0.000000    9.917627   15.459506    ( 0.0000,  0.0000,  0.0000)
 143 Li     3.658360    9.917627   15.459506    ( 0.0000,  0.0000,  0.0000)

Unit cell:
           periodic     x           y           z      points  spacing
  1. axis:    yes    7.316720    0.000000    0.000000    36     0.2032
  2. axis:    yes    0.000000   11.901200    0.000000    60     0.1984
  3. axis:    yes    0.000000    0.000000   30.459499   150     0.2031

  Lengths:   7.316720  11.901200  30.459499
  Angles:   90.000000  90.000000  90.000000

Effective grid spacing dv^(1/3) = 0.2015

                     log10-error:    total        iterations:
           time      wfs    density  energy       fermi  poisson
iter:   1  18:38:13                -591.584313    0             
iter:   2  18:38:23  -0.96  -0.50  -566.329241    0             
iter:   3  18:38:33  -0.35  -0.55  -507.560657    0             
iter:   4  18:38:44  -0.69  -0.83  -500.405733    0             
iter:   5  18:38:54  -1.40  -1.03  -497.977526    0             
iter:   6  18:39:05  -1.58  -1.28  -498.498995    10            
iter:   7  18:39:15  -1.86  -1.57  -498.208032    9             
iter:   8  18:39:26  -1.73  -1.50  -497.302046    10            
iter:   9  18:39:36  -2.37  -1.81  -497.185428    5             
iter:  10  18:39:47  -3.12  -1.94  -497.129508    3             
iter:  11  18:39:57  -3.42  -2.16  -497.143473    0             
iter:  12  18:40:07  -3.77  -2.25  -497.144926    1             
iter:  13  18:40:18  -3.45  -2.26  -497.146048    0             
iter:  14  18:40:28  -4.27  -2.42  -497.136665    0             
iter:  15  18:40:39  -4.47  -2.55  -497.135104    0             
iter:  16  18:40:49  -4.11  -2.62  -497.138310    0             
iter:  17  18:40:59  -4.16  -2.76  -497.135266    0             
iter:  18  18:41:10  -4.69  -2.98  -497.136184    0             
iter:  19  18:41:20  -4.76  -2.86  -497.135157    0             
iter:  20  18:41:31  -5.40  -3.16  -497.135065    0             
iter:  21  18:41:41  -6.19  -3.40  -497.135128    0             
iter:  22  18:41:52  -6.32  -3.55  -497.135123    0             
iter:  23  18:42:02  -6.62  -3.73  -497.135117    0             
iter:  24  18:42:13  -6.97  -3.79  -497.135115    0             
iter:  25  18:42:23  -7.44  -3.97  -497.135115    0             
iter:  26  18:42:33  -7.41  -4.03  -497.135113    0             
iter:  27  18:42:44  -7.54  -4.11  -497.135112    0             
iter:  28  18:42:54  -7.99  -4.23  -497.135110    0             
iter:  29  18:43:05  -8.31  -4.39  -497.135110    0             

Converged after 29 iterations.

Dipole moment: (-0.000000, 3.396665, -11.358290) |e|*Ang

Energy contributions relative to reference atoms: (reference = -75243.058738)

Kinetic:       +719.767199
Potential:     -489.751623
External:        +0.000000
XC:            -723.666797
Entropy (-ST):   -0.000000
Local:           -3.483889
--------------------------
Free energy:   -497.135110
Extrapolated:  -497.135110

Fermi level: -0.21493

Showing all kpts
 Kpt  Band  Eigenvalues  Occupancy
  0   142     -0.68921    0.66667
  0   143     -0.67006    0.66667
  0   144      0.04752    0.00000
  0   145      0.12252    0.00000

  1   142     -0.86918    1.33333
  1   143     -0.86853    1.33333
  1   144      0.58498    0.00000
  1   145      0.61568    0.00000


Gap: 0.718 eV
Transition (v -> c):
  (s=0, k=0, n=143, [0.00, 0.25, 0.00]) -> (s=0, k=0, n=144, [0.00, 0.25, 0.00])

Forces in eV/Ang:
  0 Li    0.00000    1.71113   -0.65648
  1 Li    0.00000    1.71113   -0.65648
  2 N     0.00000    0.00002    0.69927
  3 Li   -0.00000    0.00000   -0.85554
  4 N     0.00000    0.00002    0.69927
  5 Li    0.00000    0.00000   -0.85554
  6 Li    0.00000   -1.71113   -0.65648
  7 Li    0.00000   -1.71113   -0.65648
  8 Li    0.00000    1.71113   -0.65648
  9 Li    0.00000    1.71113   -0.65648
 10 N     0.00000    0.00002    0.69927
 11 Li   -0.00000    0.00000   -0.85554
 12 N     0.00000    0.00002    0.69927
 13 Li    0.00000    0.00000   -0.85554
 14 Li    0.00000   -1.71113   -0.65648
 15 Li    0.00000   -1.71113   -0.65648
 16 Li    0.00000    0.20981   -0.04554
 17 Li    0.00000    0.20981   -0.04554
 18 Li    0.00000   -0.20981   -0.04554
 19 Li    0.00000   -0.20981   -0.04554
 20 N     0.00000    0.00002   -0.62880
 21 Li   -0.00000    0.00000    0.04139
 22 N     0.00000    0.00002   -0.62880
 23 Li    0.00000    0.00000    0.04139
 24 Li    0.00000    0.20981   -0.04554
 25 Li    0.00000    0.20981   -0.04554
 26 Li    0.00000   -0.20981   -0.04554
 27 Li    0.00000   -0.20981   -0.04554
 28 N     0.00000    0.00002   -0.62880
 29 Li   -0.00000    0.00000    0.04139
 30 N     0.00000    0.00002   -0.62880
 31 Li    0.00000    0.00000    0.04139
 32 Li    0.00000    0.09259    0.02254
 33 Li    0.00000    0.09259    0.02254
 34 N     0.00000    0.00002    0.16161
 35 Li   -0.00000    0.00000   -0.10112
 36 N     0.00000    0.00002    0.16161
 37 Li    0.00000    0.00000   -0.10112
 38 Li    0.00000   -0.09259    0.02254
 39 Li    0.00000   -0.09259    0.02254
 40 Li    0.00000    0.09259    0.02254
 41 Li    0.00000    0.09259    0.02254
 42 N     0.00000    0.00002    0.16161
 43 Li   -0.00000    0.00000   -0.10112
 44 N     0.00000    0.00002    0.16161
 45 Li    0.00000    0.00000   -0.10112
 46 Li    0.00000   -0.09259    0.02254
 47 Li    0.00000   -0.09259    0.02254
 48 Li    0.00000    0.02957   -0.00940
 49 Li    0.00000    0.02957   -0.00940
 50 Li    0.00000   -0.02957   -0.00940
 51 Li    0.00000   -0.02957   -0.00940
 52 N     0.00000    0.00002   -0.01096
 53 Li   -0.00000    0.00000    0.01398
 54 N     0.00000    0.00002   -0.01096
 55 Li    0.00000    0.00000    0.01398
 56 Li    0.00000    0.02957   -0.00940
 57 Li    0.00000    0.02957   -0.00940
 58 Li    0.00000   -0.02957   -0.00940
 59 Li    0.00000   -0.02957   -0.00940
 60 N     0.00000    0.00002   -0.01096
 61 Li   -0.00000    0.00000    0.01398
 62 N     0.00000    0.00002   -0.01096
 63 Li    0.00000    0.00000    0.01398
 64 Li    0.00000    0.01533   -0.00001
 65 Li    0.00000    0.01533   -0.00001
 66 N     0.00000    0.00002   -0.06717
 67 Li   -0.00000    0.00000   -0.00003
 68 N     0.00000    0.00002   -0.06717
 69 Li    0.00000    0.00000   -0.00003
 70 Li    0.00000   -0.01533   -0.00001
 71 Li    0.00000   -0.01533   -0.00001
 72 Li    0.00000    0.01533   -0.00001
 73 Li    0.00000    0.01533   -0.00001
 74 N     0.00000    0.00002   -0.06717
 75 Li   -0.00000    0.00000   -0.00003
 76 N     0.00000    0.00002   -0.06717
 77 Li    0.00000    0.00000   -0.00003
 78 Li    0.00000   -0.01533   -0.00001
 79 Li    0.00000   -0.01533   -0.00001
 80 Li    0.00000    0.02952    0.00944
 81 Li    0.00000    0.02952    0.00944
 82 Li    0.00000   -0.02952    0.00944
 83 Li    0.00000   -0.02952    0.00944
 84 N     0.00000    0.00002    0.10295
 85 Li    0.00000    0.00000   -0.01376
 86 N     0.00000    0.00002    0.10295
 87 Li   -0.00000    0.00000   -0.01376
 88 Li    0.00000    0.02952    0.00944
 89 Li    0.00000    0.02952    0.00944
 90 Li    0.00000   -0.02952    0.00944
 91 Li    0.00000   -0.02952    0.00944
 92 N     0.00000    0.00002    0.10295
 93 Li   -0.00000    0.00000   -0.01376
 94 N     0.00000    0.00002    0.10295
 95 Li    0.00000    0.00000   -0.01376
 96 Li    0.00000    0.09243   -0.02276
 97 Li    0.00000    0.09243   -0.02276
 98 N     0.00000    0.00002   -0.24203
 99 Li   -0.00000    0.00000    0.10091
100 N     0.00000    0.00002   -0.24203
101 Li    0.00000    0.00000    0.10091
102 Li    0.00000   -0.09243   -0.02276
103 Li    0.00000   -0.09243   -0.02276
104 Li    0.00000    0.09243   -0.02276
105 Li    0.00000    0.09243   -0.02276
106 N     0.00000    0.00002   -0.24203
107 Li   -0.00000    0.00000    0.10091
108 N     0.00000    0.00002   -0.24203
109 Li    0.00000    0.00000    0.10091
110 Li    0.00000   -0.09243   -0.02276
111 Li    0.00000   -0.09243   -0.02276
112 Li    0.00000    0.20980    0.04662
113 Li    0.00000    0.20980    0.04662
114 Li    0.00000   -0.20980    0.04662
115 Li    0.00000   -0.20980    0.04662
116 N     0.00000    0.00002    0.78742
117 Li    0.00000    0.00000   -0.04113
118 N     0.00000    0.00002    0.78742
119 Li   -0.00000    0.00000   -0.04113
120 Li    0.00000    0.20980    0.04662
121 Li    0.00000    0.20980    0.04662
122 Li    0.00000   -0.20980    0.04662
123 Li    0.00000   -0.20980    0.04662
124 N     0.00000    0.00002    0.78742
125 Li   -0.00000    0.00000   -0.04113
126 N     0.00000    0.00002    0.78742
127 Li    0.00000    0.00000   -0.04113
128 Li    0.00000    1.71121    0.65663
129 Li    0.00000    1.71121    0.65663
130 N     0.00000    0.00002   -0.79018
131 Li    0.00000    0.00000    0.85556
132 N     0.00000    0.00002   -0.79018
133 Li   -0.00000    0.00000    0.85556
134 Li    0.00000   -1.71121    0.65663
135 Li    0.00000   -1.71121    0.65663
136 Li    0.00000    1.71121    0.65663
137 Li    0.00000    1.71121    0.65663
138 N     0.00000    0.00002   -0.79018
139 Li   -0.00000    0.00000    0.85556
140 N     0.00000    0.00002   -0.79018
141 Li    0.00000    0.00000    0.85556
142 Li    0.00000   -1.71121    0.65663
143 Li    0.00000   -1.71121    0.65663

System changes: positions 

Initializing position-dependent things.

Density initialized from wave functions
        .-----------------.  
       /|                 |  
      / |                 |  
     /  |                 |  
    /   |                 |  
   /    |                 |  
  /     |                 |  
 *      |                 |  
 |      |                 |  
 |      |                 |  
 |      |                 |  
 |      |                 |  
 |      |                 |  
 |      |                 |  
 |      |                 |  
 |      |                 |  
 |      |                 |  
 |      |                 |  
 |      |                 |  
 |     Li       Li        |  
 |      |                 |  
 |    NN| LiLi NN  LiLi   |  
 |   Lii|     Lii         |  
 | LiLi |   LiLi          |  
 |N N  Lii N N  Lii       |  
 Li   NN| LiLi NN  LiLi   |  
 | LiLii|   LiLii         |  
 |LiiLi |  LiiLi          |  
 |N    Li  N    Li        |  
 Li N NNLiLiLN NNLiLiLi   |  
 | LiLii|   LiLii         |  
 |Lii   |  Lii            |  
 |N  LiLi  N  LiLi        |  
 |  N NNLiLiLN NNLiLiLi   |  
 LiLiLi | LiLiLi          |  
 |Lii Li|  Lii Li         |  
 |   LiLi     LiLi        |  
 |N N NLiiLN-N-NLiiLi-----.  
 LiLiLi/  LiLiLi         /   
 |Li  /    Li           /    
 | Li/      Li         /     
 |N /  Li  N    Li    /      
 Li/      Li         /       
 |/                 /        
 *-----------------*         

Positions:
   0 Li     0.000000    0.024445    1.708355    ( 0.0000,  0.0000,  0.0000)
   1 Li     3.658360    0.024445    1.708355    ( 0.0000,  0.0000,  0.0000)
   2 N      0.000000    1.983514    1.727723    ( 0.0000,  0.0000,  0.0000)
   3 Li     1.829180    1.983513    1.705511    ( 0.0000,  0.0000,  0.0000)
   4 N      3.658360    1.983514    1.727723    ( 0.0000,  0.0000,  0.0000)
   5 Li     5.487540    1.983513    1.705511    ( 0.0000,  0.0000,  0.0000)
   6 Li     0.000000    3.942582    1.708355    ( 0.0000,  0.0000,  0.0000)
   7 Li     3.658360    3.942582    1.708355    ( 0.0000,  0.0000,  0.0000)
   8 Li     0.000000    5.975045    1.708355    ( 0.0000,  0.0000,  0.0000)
   9 Li     3.658360    5.975045    1.708355    ( 0.0000,  0.0000,  0.0000)
  10 N      0.000000    7.934114    1.727723    ( 0.0000,  0.0000,  0.0000)
  11 Li     1.829180    7.934113    1.705511    ( 0.0000,  0.0000,  0.0000)
  12 N      3.658360    7.934114    1.727723    ( 0.0000,  0.0000,  0.0000)
  13 Li     5.487540    7.934113    1.705511    ( 0.0000,  0.0000,  0.0000)
  14 Li     0.000000    9.893182    1.708355    ( 0.0000,  0.0000,  0.0000)
  15 Li     3.658360    9.893182    1.708355    ( 0.0000,  0.0000,  0.0000)
  16 Li     0.000000    0.994724    3.434785    ( 0.0000,  0.0000,  0.0000)
  17 Li     3.658360    0.994724    3.434785    ( 0.0000,  0.0000,  0.0000)
  18 Li     0.000000    2.972303    3.434785    ( 0.0000,  0.0000,  0.0000)
  19 Li     3.658360    2.972303    3.434785    ( 0.0000,  0.0000,  0.0000)
  20 N      0.000000    4.958814    3.426453    ( 0.0000,  0.0000,  0.0000)
  21 Li     1.829180    4.958813    3.436027    ( 0.0000,  0.0000,  0.0000)
  22 N      3.658360    4.958814    3.426453    ( 0.0000,  0.0000,  0.0000)
  23 Li     5.487540    4.958813    3.436027    ( 0.0000,  0.0000,  0.0000)
  24 Li     0.000000    6.945324    3.434785    ( 0.0000,  0.0000,  0.0000)
  25 Li     3.658360    6.945324    3.434785    ( 0.0000,  0.0000,  0.0000)
  26 Li     0.000000    8.922903    3.434785    ( 0.0000,  0.0000,  0.0000)
  27 Li     3.658360    8.922903    3.434785    ( 0.0000,  0.0000,  0.0000)
  28 N      0.000000   10.909414    3.426453    ( 0.0000,  0.0000,  0.0000)
  29 Li     1.829180   10.909413    3.436027    ( 0.0000,  0.0000,  0.0000)
  30 N      3.658360   10.909414    3.426453    ( 0.0000,  0.0000,  0.0000)
  31 Li     5.487540   10.909413    3.436027    ( 0.0000,  0.0000,  0.0000)
  32 Li     0.000000    0.001323    5.153490    ( 0.0000,  0.0000,  0.0000)
  33 Li     3.658360    0.001323    5.153490    ( 0.0000,  0.0000,  0.0000)
  34 N      0.000000    1.983514    5.155477    ( 0.0000,  0.0000,  0.0000)
  35 Li     1.829180    1.983513    5.151724    ( 0.0000,  0.0000,  0.0000)
  36 N      3.658360    1.983514    5.155477    ( 0.0000,  0.0000,  0.0000)
  37 Li     5.487540    1.983513    5.151724    ( 0.0000,  0.0000,  0.0000)
  38 Li     0.000000    3.965704    5.153490    ( 0.0000,  0.0000,  0.0000)
  39 Li     3.658360    3.965704    5.153490    ( 0.0000,  0.0000,  0.0000)
  40 Li     0.000000    5.951923    5.153490    ( 0.0000,  0.0000,  0.0000)
  41 Li     3.658360    5.951923    5.153490    ( 0.0000,  0.0000,  0.0000)
  42 N      0.000000    7.934114    5.155477    ( 0.0000,  0.0000,  0.0000)
  43 Li     1.829180    7.934113    5.151724    ( 0.0000,  0.0000,  0.0000)
  44 N      3.658360    7.934114    5.155477    ( 0.0000,  0.0000,  0.0000)
  45 Li     5.487540    7.934113    5.151724    ( 0.0000,  0.0000,  0.0000)
  46 Li     0.000000    9.916304    5.153490    ( 0.0000,  0.0000,  0.0000)
  47 Li     3.658360    9.916304    5.153490    ( 0.0000,  0.0000,  0.0000)
  48 Li     0.000000    0.992149    6.870767    ( 0.0000,  0.0000,  0.0000)
  49 Li     3.658360    0.992149    6.870767    ( 0.0000,  0.0000,  0.0000)
  50 Li     0.000000    2.974878    6.870767    ( 0.0000,  0.0000,  0.0000)
  51 Li     3.658360    2.974878    6.870767    ( 0.0000,  0.0000,  0.0000)
  52 N      0.000000    4.958814    6.870745    ( 0.0000,  0.0000,  0.0000)
  53 Li     1.829180    4.958813    6.871101    ( 0.0000,  0.0000,  0.0000)
  54 N      3.658360    4.958814    6.870745    ( 0.0000,  0.0000,  0.0000)
  55 Li     5.487540    4.958813    6.871101    ( 0.0000,  0.0000,  0.0000)
  56 Li     0.000000    6.942749    6.870767    ( 0.0000,  0.0000,  0.0000)
  57 Li     3.658360    6.942749    6.870767    ( 0.0000,  0.0000,  0.0000)
  58 Li     0.000000    8.925478    6.870767    ( 0.0000,  0.0000,  0.0000)
  59 Li     3.658360    8.925478    6.870767    ( 0.0000,  0.0000,  0.0000)
  60 N      0.000000   10.909414    6.870745    ( 0.0000,  0.0000,  0.0000)
  61 Li     1.829180   10.909413    6.871101    ( 0.0000,  0.0000,  0.0000)
  62 N      3.658360   10.909414    6.870745    ( 0.0000,  0.0000,  0.0000)
  63 Li     5.487540   10.909413    6.871101    ( 0.0000,  0.0000,  0.0000)
  64 Li     0.000000    0.000219    8.588604    ( 0.0000,  0.0000,  0.0000)
  65 Li     3.658360    0.000219    8.588604    ( 0.0000,  0.0000,  0.0000)
  66 N      0.000000    1.983514    8.587644    ( 0.0000,  0.0000,  0.0000)
  67 Li     1.829180    1.983513    8.588604    ( 0.0000,  0.0000,  0.0000)
  68 N      3.658360    1.983514    8.587644    ( 0.0000,  0.0000,  0.0000)
  69 Li     5.487540    1.983513    8.588604    ( 0.0000,  0.0000,  0.0000)
  70 Li     0.000000    3.966808    8.588604    ( 0.0000,  0.0000,  0.0000)
  71 Li     3.658360    3.966808    8.588604    ( 0.0000,  0.0000,  0.0000)
  72 Li     0.000000    5.950819    8.588604    ( 0.0000,  0.0000,  0.0000)
  73 Li     3.658360    5.950819    8.588604    ( 0.0000,  0.0000,  0.0000)
  74 N      0.000000    7.934114    8.587644    ( 0.0000,  0.0000,  0.0000)
  75 Li     1.829180    7.934113    8.588604    ( 0.0000,  0.0000,  0.0000)
  76 N      3.658360    7.934114    8.587644    ( 0.0000,  0.0000,  0.0000)
  77 Li     5.487540    7.934113    8.588604    ( 0.0000,  0.0000,  0.0000)
  78 Li     0.000000    9.917408    8.588604    ( 0.0000,  0.0000,  0.0000)
  79 Li     3.658360    9.917408    8.588604    ( 0.0000,  0.0000,  0.0000)
  80 Li     0.000000    0.992149   10.306472    ( 0.0000,  0.0000,  0.0000)
  81 Li     3.658360    0.992149   10.306472    ( 0.0000,  0.0000,  0.0000)
  82 Li     0.000000    2.974878   10.306472    ( 0.0000,  0.0000,  0.0000)
  83 Li     3.658360    2.974878   10.306472    ( 0.0000,  0.0000,  0.0000)
  84 N      0.000000    4.958814   10.307808    ( 0.0000,  0.0000,  0.0000)
  85 Li     1.829180    4.958813   10.306140    ( 0.0000,  0.0000,  0.0000)
  86 N      3.658360    4.958814   10.307808    ( 0.0000,  0.0000,  0.0000)
  87 Li     5.487540    4.958813   10.306140    ( 0.0000,  0.0000,  0.0000)
  88 Li     0.000000    6.942749   10.306472    ( 0.0000,  0.0000,  0.0000)
  89 Li     3.658360    6.942749   10.306472    ( 0.0000,  0.0000,  0.0000)
  90 Li     0.000000    8.925478   10.306472    ( 0.0000,  0.0000,  0.0000)
  91 Li     3.658360    8.925478   10.306472    ( 0.0000,  0.0000,  0.0000)
  92 N      0.000000   10.909414   10.307808    ( 0.0000,  0.0000,  0.0000)
  93 Li     1.829180   10.909413   10.306140    ( 0.0000,  0.0000,  0.0000)
  94 N      3.658360   10.909414   10.307808    ( 0.0000,  0.0000,  0.0000)
  95 Li     5.487540   10.909413   10.306140    ( 0.0000,  0.0000,  0.0000)
  96 Li     0.000000    0.001320   12.023745    ( 0.0000,  0.0000,  0.0000)
  97 Li     3.658360    0.001320   12.023745    ( 0.0000,  0.0000,  0.0000)
  98 N      0.000000    1.983514   12.020612    ( 0.0000,  0.0000,  0.0000)
  99 Li     1.829180    1.983513   12.025512    ( 0.0000,  0.0000,  0.0000)
 100 N      3.658360    1.983514   12.020612    ( 0.0000,  0.0000,  0.0000)
 101 Li     5.487540    1.983513   12.025512    ( 0.0000,  0.0000,  0.0000)
 102 Li     0.000000    3.965706   12.023745    ( 0.0000,  0.0000,  0.0000)
 103 Li     3.658360    3.965706   12.023745    ( 0.0000,  0.0000,  0.0000)
 104 Li     0.000000    5.951920   12.023745    ( 0.0000,  0.0000,  0.0000)
 105 Li     3.658360    5.951920   12.023745    ( 0.0000,  0.0000,  0.0000)
 106 N      0.000000    7.934114   12.020612    ( 0.0000,  0.0000,  0.0000)
 107 Li     1.829180    7.934113   12.025512    ( 0.0000,  0.0000,  0.0000)
 108 N      3.658360    7.934114   12.020612    ( 0.0000,  0.0000,  0.0000)
 109 Li     5.487540    7.934113   12.025512    ( 0.0000,  0.0000,  0.0000)
 110 Li     0.000000    9.916306   12.023745    ( 0.0000,  0.0000,  0.0000)
 111 Li     3.658360    9.916306   12.023745    ( 0.0000,  0.0000,  0.0000)
 112 Li     0.000000    0.994724   13.742439    ( 0.0000,  0.0000,  0.0000)
 113 Li     3.658360    0.994724   13.742439    ( 0.0000,  0.0000,  0.0000)
 114 Li     0.000000    2.972303   13.742439    ( 0.0000,  0.0000,  0.0000)
 115 Li     3.658360    2.972303   13.742439    ( 0.0000,  0.0000,  0.0000)
 116 N      0.000000    4.958814   13.753021    ( 0.0000,  0.0000,  0.0000)
 117 Li     1.829180    4.958813   13.741185    ( 0.0000,  0.0000,  0.0000)
 118 N      3.658360    4.958814   13.753021    ( 0.0000,  0.0000,  0.0000)
 119 Li     5.487540    4.958813   13.741185    ( 0.0000,  0.0000,  0.0000)
 120 Li     0.000000    6.945324   13.742439    ( 0.0000,  0.0000,  0.0000)
 121 Li     3.658360    6.945324   13.742439    ( 0.0000,  0.0000,  0.0000)
 122 Li     0.000000    8.922903   13.742439    ( 0.0000,  0.0000,  0.0000)
 123 Li     3.658360    8.922903   13.742439    ( 0.0000,  0.0000,  0.0000)
 124 N      0.000000   10.909414   13.753021    ( 0.0000,  0.0000,  0.0000)
 125 Li     1.829180   10.909413   13.741185    ( 0.0000,  0.0000,  0.0000)
 126 N      3.658360   10.909414   13.753021    ( 0.0000,  0.0000,  0.0000)
 127 Li     5.487540   10.909413   13.741185    ( 0.0000,  0.0000,  0.0000)
 128 Li     0.000000    0.024446   15.468886    ( 0.0000,  0.0000,  0.0000)
 129 Li     3.658360    0.024446   15.468886    ( 0.0000,  0.0000,  0.0000)
 130 N      0.000000    1.983514   15.448217    ( 0.0000,  0.0000,  0.0000)
 131 Li     1.829180    1.983513   15.471728    ( 0.0000,  0.0000,  0.0000)
 132 N      3.658360    1.983514   15.448217    ( 0.0000,  0.0000,  0.0000)
 133 Li     5.487540    1.983513   15.471728    ( 0.0000,  0.0000,  0.0000)
 134 Li     0.000000    3.942581   15.468886    ( 0.0000,  0.0000,  0.0000)
 135 Li     3.658360    3.942581   15.468886    ( 0.0000,  0.0000,  0.0000)
 136 Li     0.000000    5.975046   15.468886    ( 0.0000,  0.0000,  0.0000)
 137 Li     3.658360    5.975046   15.468886    ( 0.0000,  0.0000,  0.0000)
 138 N      0.000000    7.934114   15.448217    ( 0.0000,  0.0000,  0.0000)
 139 Li     1.829180    7.934113   15.471728    ( 0.0000,  0.0000,  0.0000)
 140 N      3.658360    7.934114   15.448217    ( 0.0000,  0.0000,  0.0000)
 141 Li     5.487540    7.934113   15.471728    ( 0.0000,  0.0000,  0.0000)
 142 Li     0.000000    9.893181   15.468886    ( 0.0000,  0.0000,  0.0000)
 143 Li     3.658360    9.893181   15.468886    ( 0.0000,  0.0000,  0.0000)

Unit cell:
           periodic     x           y           z      points  spacing
  1. axis:    yes    7.316720    0.000000    0.000000    36     0.2032
  2. axis:    yes    0.000000   11.901200    0.000000    60     0.1984
  3. axis:    yes    0.000000    0.000000   30.459499   150     0.2031

  Lengths:   7.316720  11.901200  30.459499
  Angles:   90.000000  90.000000  90.000000

Effective grid spacing dv^(1/3) = 0.2015

                     log10-error:    total        iterations:
           time      wfs    density  energy       fermi  poisson
iter:   1  18:43:35  -2.70         -498.079813    0             
iter:   2  18:43:45  -3.91  -2.52  -498.075158    0             
iter:   3  18:43:55  -3.41  -2.56  -498.066673    0             
iter:   4  18:44:06  -5.20  -2.70  -498.063082    0             
iter:   5  18:44:16  -3.98  -2.76  -498.062186    0             
iter:   6  18:44:26  -4.91  -2.88  -498.059236    0             
iter:   7  18:44:37  -5.86  -3.24  -498.059123    0             
iter:   8  18:44:47  -5.44  -3.31  -498.058812    0             
iter:   9  18:44:58  -5.20  -3.45  -498.058707    0             
iter:  10  18:45:08  -6.65  -3.63  -498.058660    0             
iter:  11  18:45:19  -5.62  -3.71  -498.058741    0             
iter:  12  18:45:29  -6.28  -3.68  -498.058652    0             
iter:  13  18:45:40  -6.90  -4.02  -498.058649    0             
iter:  14  18:45:50  -7.27  -4.09  -498.058650    0             
iter:  15  18:46:01  -7.91  -4.21  -498.058652    0             
iter:  16  18:46:11  -8.15  -4.34  -498.058652    0             

Converged after 16 iterations.

Dipole moment: (-0.000000, 1.498503, -11.450421) |e|*Ang

Energy contributions relative to reference atoms: (reference = -75243.058738)

Kinetic:       +720.946990
Potential:     -491.306453
External:        +0.000000
XC:            -724.251757
Entropy (-ST):   -0.000000
Local:           -3.447432
--------------------------
Free energy:   -498.058652
Extrapolated:  -498.058652

Fermi level: -0.21493

Showing all kpts
 Kpt  Band  Eigenvalues  Occupancy
  0   142     -0.69309    0.66667
  0   143     -0.67260    0.66667
  0   144      0.09882    0.00000
  0   145      0.16380    0.00000

  1   142     -0.87242    1.33333
  1   143     -0.87032    1.33333
  1   144      0.63147    0.00000
  1   145      0.66398    0.00000


Gap: 0.771 eV
Transition (v -> c):
  (s=0, k=0, n=143, [0.00, 0.25, 0.00]) -> (s=0, k=0, n=144, [0.00, 0.25, 0.00])

Forces in eV/Ang:
  0 Li    0.00000    1.42794   -0.61330
  1 Li    0.00000    1.42794   -0.61330
  2 N     0.00000    0.00001    0.62219
  3 Li   -0.00000    0.00000   -0.81546
  4 N     0.00000    0.00001    0.62219
  5 Li    0.00000    0.00000   -0.81546
  6 Li    0.00000   -1.42794   -0.61330
  7 Li    0.00000   -1.42794   -0.61330
  8 Li    0.00000    1.42794   -0.61330
  9 Li    0.00000    1.42794   -0.61330
 10 N     0.00000    0.00001    0.62219
 11 Li    0.00000    0.00000   -0.81546
 12 N     0.00000    0.00001    0.62219
 13 Li   -0.00000    0.00000   -0.81546
 14 Li    0.00000   -1.42794   -0.61330
 15 Li    0.00000   -1.42794   -0.61330
 16 Li    0.00000    0.14969   -0.01087
 17 Li    0.00000    0.14969   -0.01087
 18 Li    0.00000   -0.14969   -0.01087
 19 Li    0.00000   -0.14969   -0.01087
 20 N     0.00000    0.00001   -0.58280
 21 Li   -0.00000   -0.00000    0.00165
 22 N     0.00000    0.00001   -0.58280
 23 Li    0.00000   -0.00000    0.00165
 24 Li    0.00000    0.14969   -0.01087
 25 Li    0.00000    0.14969   -0.01087
 26 Li    0.00000   -0.14969   -0.01087
 27 Li    0.00000   -0.14969   -0.01087
 28 N     0.00000    0.00001   -0.58280
 29 Li   -0.00000   -0.00000    0.00165
 30 N     0.00000    0.00001   -0.58280
 31 Li    0.00000   -0.00000    0.00165
 32 Li    0.00000    0.07022   -0.00778
 33 Li    0.00000    0.07022   -0.00778
 34 N     0.00000    0.00001    0.12538
 35 Li   -0.00000    0.00000   -0.09586
 36 N     0.00000    0.00001    0.12538
 37 Li    0.00000    0.00000   -0.09586
 38 Li    0.00000   -0.07022   -0.00778
 39 Li    0.00000   -0.07022   -0.00778
 40 Li    0.00000    0.07022   -0.00778
 41 Li    0.00000    0.07022   -0.00778
 42 N     0.00000    0.00001    0.12538
 43 Li   -0.00000    0.00000   -0.09586
 44 N     0.00000    0.00001    0.12538
 45 Li    0.00000    0.00000   -0.09586
 46 Li    0.00000   -0.07022   -0.00778
 47 Li    0.00000   -0.07022   -0.00778
 48 Li    0.00000    0.02433   -0.00301
 49 Li    0.00000    0.02433   -0.00301
 50 Li    0.00000   -0.02433   -0.00301
 51 Li    0.00000   -0.02433   -0.00301
 52 N     0.00000    0.00001   -0.01113
 53 Li    0.00000   -0.00000    0.01248
 54 N     0.00000    0.00001   -0.01113
 55 Li   -0.00000   -0.00000    0.01248
 56 Li    0.00000    0.02433   -0.00301
 57 Li    0.00000    0.02433   -0.00301
 58 Li    0.00000   -0.02433   -0.00301
 59 Li    0.00000   -0.02433   -0.00301
 60 N     0.00000    0.00001   -0.01113
 61 Li   -0.00000   -0.00000    0.01248
 62 N     0.00000    0.00001   -0.01113
 63 Li    0.00000   -0.00000    0.01248
 64 Li    0.00000    0.01358    0.00169
 65 Li    0.00000    0.01358    0.00169
 66 N     0.00000    0.00001   -0.05392
 67 Li   -0.00000    0.00000   -0.00080
 68 N     0.00000    0.00001   -0.05392
 69 Li    0.00000    0.00000   -0.00080
 70 Li    0.00000   -0.01358    0.00169
 71 Li    0.00000   -0.01358    0.00169
 72 Li    0.00000    0.01358    0.00169
 73 Li    0.00000    0.01358    0.00169
 74 N     0.00000    0.00001   -0.05392
 75 Li   -0.00000    0.00000   -0.00080
 76 N     0.00000    0.00001   -0.05392
 77 Li    0.00000    0.00000   -0.00080
 78 Li    0.00000   -0.01358    0.00169
 79 Li    0.00000   -0.01358    0.00169
 80 Li    0.00000    0.02506   -0.00242
 81 Li    0.00000    0.02506   -0.00242
 82 Li    0.00000   -0.02505   -0.00242
 83 Li    0.00000   -0.02505   -0.00242
 84 N     0.00000    0.00001    0.09064
 85 Li   -0.00000   -0.00000   -0.01182
 86 N     0.00000    0.00001    0.09064
 87 Li    0.00000   -0.00000   -0.01182
 88 Li    0.00000    0.02506   -0.00242
 89 Li    0.00000    0.02506   -0.00242
 90 Li    0.00000   -0.02505   -0.00242
 91 Li    0.00000   -0.02505   -0.00242
 92 N     0.00000    0.00001    0.09064
 93 Li   -0.00000   -0.00000   -0.01182
 94 N     0.00000    0.00001    0.09064
 95 Li    0.00000   -0.00000   -0.01182
 96 Li    0.00000    0.06931    0.01452
 97 Li    0.00000    0.06931    0.01452
 98 N     0.00000    0.00001   -0.19990
 99 Li   -0.00000    0.00000    0.09572
100 N     0.00000    0.00001   -0.19990
101 Li    0.00000    0.00000    0.09572
102 Li    0.00000   -0.06931    0.01452
103 Li    0.00000   -0.06931    0.01452
104 Li    0.00000    0.06931    0.01452
105 Li    0.00000    0.06931    0.01452
106 N     0.00000    0.00001   -0.19990
107 Li   -0.00000    0.00000    0.09572
108 N     0.00000    0.00001   -0.19990
109 Li    0.00000    0.00000    0.09572
110 Li    0.00000   -0.06931    0.01452
111 Li    0.00000   -0.06931    0.01452
112 Li    0.00000    0.14930    0.00945
113 Li    0.00000    0.14930    0.00945
114 Li    0.00000   -0.14929    0.00945
115 Li    0.00000   -0.14929    0.00945
116 N     0.00000    0.00001    0.73465
117 Li   -0.00000   -0.00000    0.00103
118 N     0.00000    0.00001    0.73465
119 Li    0.00000   -0.00000    0.00103
120 Li    0.00000    0.14930    0.00945
121 Li    0.00000    0.14930    0.00945
122 Li    0.00000   -0.14929    0.00945
123 Li    0.00000   -0.14929    0.00945
124 N     0.00000    0.00001    0.73465
125 Li    0.00000   -0.00000    0.00103
126 N     0.00000    0.00001    0.73465
127 Li   -0.00000   -0.00000    0.00103
128 Li    0.00000    1.42952    0.61599
129 Li    0.00000    1.42952    0.61599
130 N     0.00000    0.00001   -0.64269
131 Li   -0.00000    0.00000    0.81457
132 N     0.00000    0.00001   -0.64269
133 Li    0.00000    0.00000    0.81457
134 Li    0.00000   -1.42952    0.61599
135 Li    0.00000   -1.42952    0.61599
136 Li    0.00000    1.42952    0.61599
137 Li    0.00000    1.42952    0.61599
138 N     0.00000    0.00001   -0.64269
139 Li    0.00000    0.00000    0.81457
140 N     0.00000    0.00001   -0.64269
141 Li   -0.00000    0.00000    0.81457
142 Li    0.00000   -1.42952    0.61599
143 Li    0.00000   -1.42952    0.61599

System changes: positions 

Initializing position-dependent things.

Density initialized from wave functions
        .-----------------.  
       /|                 |  
      / |                 |  
     /  |                 |  
    /   |                 |  
   /    |                 |  
  /     |                 |  
 *      |                 |  
 |      |                 |  
 |      |                 |  
 |      |                 |  
 |      |                 |  
 |      |                 |  
 |      |                 |  
 |      |                 |  
 |      |                 |  
 |      |                 |  
 |      |                 |  
 |      |                 |  
 |     Li       Li        |  
 |      | Li       Li     |  
 |    NN|   Li NN    Li   |  
 |   Lii|     Lii         |  
 | LiLi |   LiLi          |  
 |N N  Lii N N  Lii       |  
 Li   NN| LiLi NN  LiLi   |  
 | LiLii|   LiLii         |  
 |LiiLi |  LiiLi          |  
 |N    Li  N    Li        |  
 Li N NNLiLiLN NNLiLiLi   |  
 | LiLii|   LiLii         |  
 |Lii   |  Lii            |  
 |N  LiLi  N  LiLi        |  
 |  N NNLiLiLN NNLiLiLi   |  
 LiLiLi | LiLiLi          |  
 |Lii Li|  Lii Li         |  
 |   LiLi     LiLi        |  
 |N N NLiiLN-N-NLiiLi-----.  
 LiLiLi/  LiLiLi         /   
 |Li  /    Li           /    
 | Li/      Li         /     
 |N /  Li  N    Li    /      
 Li/      Li         /       
 |/                 /        
 *-----------------*         

Positions:
   0 Li     0.000000    0.173038    1.644701    ( 0.0000,  0.0000,  0.0000)
   1 Li     3.658360    0.173038    1.644701    ( 0.0000,  0.0000,  0.0000)
   2 N      0.000000    1.983515    1.792370    ( 0.0000,  0.0000,  0.0000)
   3 Li     1.829180    1.983514    1.620913    ( 0.0000,  0.0000,  0.0000)
   4 N      3.658360    1.983515    1.792370    ( 0.0000,  0.0000,  0.0000)
   5 Li     5.487540    1.983514    1.620913    ( 0.0000,  0.0000,  0.0000)
   6 Li     0.000000    3.793989    1.644701    ( 0.0000,  0.0000,  0.0000)
   7 Li     3.658360    3.793989    1.644701    ( 0.0000,  0.0000,  0.0000)
   8 Li     0.000000    6.123638    1.644701    ( 0.0000,  0.0000,  0.0000)
   9 Li     3.658360    6.123638    1.644701    ( 0.0000,  0.0000,  0.0000)
  10 N      0.000000    7.934115    1.792370    ( 0.0000,  0.0000,  0.0000)
  11 Li     1.829180    7.934114    1.620913    ( 0.0000,  0.0000,  0.0000)
  12 N      3.658360    7.934115    1.792370    ( 0.0000,  0.0000,  0.0000)
  13 Li     5.487540    7.934114    1.620913    ( 0.0000,  0.0000,  0.0000)
  14 Li     0.000000    9.744589    1.644701    ( 0.0000,  0.0000,  0.0000)
  15 Li     3.658360    9.744589    1.644701    ( 0.0000,  0.0000,  0.0000)
  16 Li     0.000000    1.010367    3.433585    ( 0.0000,  0.0000,  0.0000)
  17 Li     3.658360    1.010367    3.433585    ( 0.0000,  0.0000,  0.0000)
  18 Li     0.000000    2.956661    3.433585    ( 0.0000,  0.0000,  0.0000)
  19 Li     3.658360    2.956661    3.433585    ( 0.0000,  0.0000,  0.0000)
  20 N      0.000000    4.958815    3.365955    ( 0.0000,  0.0000,  0.0000)
  21 Li     1.829180    4.958813    3.436283    ( 0.0000,  0.0000,  0.0000)
  22 N      3.658360    4.958815    3.365955    ( 0.0000,  0.0000,  0.0000)
  23 Li     5.487540    4.958813    3.436283    ( 0.0000,  0.0000,  0.0000)
  24 Li     0.000000    6.960967    3.433585    ( 0.0000,  0.0000,  0.0000)
  25 Li     3.658360    6.960967    3.433585    ( 0.0000,  0.0000,  0.0000)
  26 Li     0.000000    8.907261    3.433585    ( 0.0000,  0.0000,  0.0000)
  27 Li     3.658360    8.907261    3.433585    ( 0.0000,  0.0000,  0.0000)
  28 N      0.000000   10.909415    3.365955    ( 0.0000,  0.0000,  0.0000)
  29 Li     1.829180   10.909413    3.436283    ( 0.0000,  0.0000,  0.0000)
  30 N      3.658360   10.909415    3.365955    ( 0.0000,  0.0000,  0.0000)
  31 Li     5.487540   10.909413    3.436283    ( 0.0000,  0.0000,  0.0000)
  32 Li     0.000000    0.008648    5.152749    ( 0.0000,  0.0000,  0.0000)
  33 Li     3.658360    0.008648    5.152749    ( 0.0000,  0.0000,  0.0000)
  34 N      0.000000    1.983515    5.168548    ( 0.0000,  0.0000,  0.0000)
  35 Li     1.829180    1.983514    5.141778    ( 0.0000,  0.0000,  0.0000)
  36 N      3.658360    1.983515    5.168548    ( 0.0000,  0.0000,  0.0000)
  37 Li     5.487540    1.983514    5.141778    ( 0.0000,  0.0000,  0.0000)
  38 Li     0.000000    3.958379    5.152749    ( 0.0000,  0.0000,  0.0000)
  39 Li     3.658360    3.958379    5.152749    ( 0.0000,  0.0000,  0.0000)
  40 Li     0.000000    5.959248    5.152749    ( 0.0000,  0.0000,  0.0000)
  41 Li     3.658360    5.959248    5.152749    ( 0.0000,  0.0000,  0.0000)
  42 N      0.000000    7.934115    5.168548    ( 0.0000,  0.0000,  0.0000)
  43 Li     1.829180    7.934114    5.141778    ( 0.0000,  0.0000,  0.0000)
  44 N      3.658360    7.934115    5.168548    ( 0.0000,  0.0000,  0.0000)
  45 Li     5.487540    7.934114    5.141778    ( 0.0000,  0.0000,  0.0000)
  46 Li     0.000000    9.908979    5.152749    ( 0.0000,  0.0000,  0.0000)
  47 Li     3.658360    9.908979    5.152749    ( 0.0000,  0.0000,  0.0000)
  48 Li     0.000000    0.994682    6.870442    ( 0.0000,  0.0000,  0.0000)
  49 Li     3.658360    0.994682    6.870442    ( 0.0000,  0.0000,  0.0000)
  50 Li     0.000000    2.972345    6.870442    ( 0.0000,  0.0000,  0.0000)
  51 Li     3.658360    2.972345    6.870442    ( 0.0000,  0.0000,  0.0000)
  52 N      0.000000    4.958815    6.869592    ( 0.0000,  0.0000,  0.0000)
  53 Li     1.829180    4.958813    6.872398    ( 0.0000,  0.0000,  0.0000)
  54 N      3.658360    4.958815    6.869592    ( 0.0000,  0.0000,  0.0000)
  55 Li     5.487540    4.958813    6.872398    ( 0.0000,  0.0000,  0.0000)
  56 Li     0.000000    6.945282    6.870442    ( 0.0000,  0.0000,  0.0000)
  57 Li     3.658360    6.945282    6.870442    ( 0.0000,  0.0000,  0.0000)
  58 Li     0.000000    8.922945    6.870442    ( 0.0000,  0.0000,  0.0000)
  59 Li     3.658360    8.922945    6.870442    ( 0.0000,  0.0000,  0.0000)
  60 N      0.000000   10.909415    6.869592    ( 0.0000,  0.0000,  0.0000)
  61 Li     1.829180   10.909413    6.872398    ( 0.0000,  0.0000,  0.0000)
  62 N      3.658360   10.909415    6.869592    ( 0.0000,  0.0000,  0.0000)
  63 Li     5.487540   10.909413    6.872398    ( 0.0000,  0.0000,  0.0000)
  64 Li     0.000000    0.001630    8.588775    ( 0.0000,  0.0000,  0.0000)
  65 Li     3.658360    0.001630    8.588775    ( 0.0000,  0.0000,  0.0000)
  66 N      0.000000    1.983515    8.582028    ( 0.0000,  0.0000,  0.0000)
  67 Li     1.829180    1.983513    8.588523    ( 0.0000,  0.0000,  0.0000)
  68 N      3.658360    1.983515    8.582028    ( 0.0000,  0.0000,  0.0000)
  69 Li     5.487540    1.983513    8.588523    ( 0.0000,  0.0000,  0.0000)
  70 Li     0.000000    3.965397    8.588775    ( 0.0000,  0.0000,  0.0000)
  71 Li     3.658360    3.965397    8.588775    ( 0.0000,  0.0000,  0.0000)
  72 Li     0.000000    5.952230    8.588775    ( 0.0000,  0.0000,  0.0000)
  73 Li     3.658360    5.952230    8.588775    ( 0.0000,  0.0000,  0.0000)
  74 N      0.000000    7.934115    8.582028    ( 0.0000,  0.0000,  0.0000)
  75 Li     1.829180    7.934113    8.588523    ( 0.0000,  0.0000,  0.0000)
  76 N      3.658360    7.934115    8.582028    ( 0.0000,  0.0000,  0.0000)
  77 Li     5.487540    7.934113    8.588523    ( 0.0000,  0.0000,  0.0000)
  78 Li     0.000000    9.915997    8.588775    ( 0.0000,  0.0000,  0.0000)
  79 Li     3.658360    9.915997    8.588775    ( 0.0000,  0.0000,  0.0000)
  80 Li     0.000000    0.994755   10.306246    ( 0.0000,  0.0000,  0.0000)
  81 Li     3.658360    0.994755   10.306246    ( 0.0000,  0.0000,  0.0000)
  82 Li     0.000000    2.972272   10.306246    ( 0.0000,  0.0000,  0.0000)
  83 Li     3.658360    2.972272   10.306246    ( 0.0000,  0.0000,  0.0000)
  84 N      0.000000    4.958815   10.317228    ( 0.0000,  0.0000,  0.0000)
  85 Li     1.829180    4.958813   10.304911    ( 0.0000,  0.0000,  0.0000)
  86 N      3.658360    4.958815   10.317228    ( 0.0000,  0.0000,  0.0000)
  87 Li     5.487540    4.958813   10.304911    ( 0.0000,  0.0000,  0.0000)
  88 Li     0.000000    6.945355   10.306246    ( 0.0000,  0.0000,  0.0000)
  89 Li     3.658360    6.945355   10.306246    ( 0.0000,  0.0000,  0.0000)
  90 Li     0.000000    8.922872   10.306246    ( 0.0000,  0.0000,  0.0000)
  91 Li     3.658360    8.922872   10.306246    ( 0.0000,  0.0000,  0.0000)
  92 N      0.000000   10.909415   10.317228    ( 0.0000,  0.0000,  0.0000)
  93 Li     1.829180   10.909413   10.304911    ( 0.0000,  0.0000,  0.0000)
  94 N      3.658360   10.909415   10.317228    ( 0.0000,  0.0000,  0.0000)
  95 Li     5.487540   10.909413   10.304911    ( 0.0000,  0.0000,  0.0000)
  96 Li     0.000000    0.008553   12.025170    ( 0.0000,  0.0000,  0.0000)
  97 Li     3.658360    0.008553   12.025170    ( 0.0000,  0.0000,  0.0000)
  98 N      0.000000    1.983515   11.999805    ( 0.0000,  0.0000,  0.0000)
  99 Li     1.829180    1.983514   12.035443    ( 0.0000,  0.0000,  0.0000)
 100 N      3.658360    1.983515   11.999805    ( 0.0000,  0.0000,  0.0000)
 101 Li     5.487540    1.983514   12.035443    ( 0.0000,  0.0000,  0.0000)
 102 Li     0.000000    3.958474   12.025170    ( 0.0000,  0.0000,  0.0000)
 103 Li     3.658360    3.958474   12.025170    ( 0.0000,  0.0000,  0.0000)
 104 Li     0.000000    5.959153   12.025170    ( 0.0000,  0.0000,  0.0000)
 105 Li     3.658360    5.959153   12.025170    ( 0.0000,  0.0000,  0.0000)
 106 N      0.000000    7.934115   11.999805    ( 0.0000,  0.0000,  0.0000)
 107 Li     1.829180    7.934114   12.035443    ( 0.0000,  0.0000,  0.0000)
 108 N      3.658360    7.934115   11.999805    ( 0.0000,  0.0000,  0.0000)
 109 Li     5.487540    7.934114   12.035443    ( 0.0000,  0.0000,  0.0000)
 110 Li     0.000000    9.909074   12.025170    ( 0.0000,  0.0000,  0.0000)
 111 Li     3.658360    9.909074   12.025170    ( 0.0000,  0.0000,  0.0000)
 112 Li     0.000000    1.010326   13.743497    ( 0.0000,  0.0000,  0.0000)
 113 Li     3.658360    1.010326   13.743497    ( 0.0000,  0.0000,  0.0000)
 114 Li     0.000000    2.956701   13.743497    ( 0.0000,  0.0000,  0.0000)
 115 Li     3.658360    2.956701   13.743497    ( 0.0000,  0.0000,  0.0000)
 116 N      0.000000    4.958815   13.829272    ( 0.0000,  0.0000,  0.0000)
 117 Li     1.829180    4.958813   13.741202    ( 0.0000,  0.0000,  0.0000)
 118 N      3.658360    4.958815   13.829272    ( 0.0000,  0.0000,  0.0000)
 119 Li     5.487540    4.958813   13.741202    ( 0.0000,  0.0000,  0.0000)
 120 Li     0.000000    6.960926   13.743497    ( 0.0000,  0.0000,  0.0000)
 121 Li     3.658360    6.960926   13.743497    ( 0.0000,  0.0000,  0.0000)
 122 Li     0.000000    8.907301   13.743497    ( 0.0000,  0.0000,  0.0000)
 123 Li     3.658360    8.907301   13.743497    ( 0.0000,  0.0000,  0.0000)
 124 N      0.000000   10.909415   13.829272    ( 0.0000,  0.0000,  0.0000)
 125 Li     1.829180   10.909413   13.741202    ( 0.0000,  0.0000,  0.0000)
 126 N      3.658360   10.909415   13.829272    ( 0.0000,  0.0000,  0.0000)
 127 Li     5.487540   10.909413   13.741202    ( 0.0000,  0.0000,  0.0000)
 128 Li     0.000000    0.173200   15.532813    ( 0.0000,  0.0000,  0.0000)
 129 Li     3.658360    0.173200   15.532813    ( 0.0000,  0.0000,  0.0000)
 130 N      0.000000    1.983515   15.381296    ( 0.0000,  0.0000,  0.0000)
 131 Li     1.829180    1.983514   15.556235    ( 0.0000,  0.0000,  0.0000)
 132 N      3.658360    1.983515   15.381296    ( 0.0000,  0.0000,  0.0000)
 133 Li     5.487540    1.983514   15.556235    ( 0.0000,  0.0000,  0.0000)
 134 Li     0.000000    3.793828   15.532813    ( 0.0000,  0.0000,  0.0000)
 135 Li     3.658360    3.793828   15.532813    ( 0.0000,  0.0000,  0.0000)
 136 Li     0.000000    6.123800   15.532813    ( 0.0000,  0.0000,  0.0000)
 137 Li     3.658360    6.123800   15.532813    ( 0.0000,  0.0000,  0.0000)
 138 N      0.000000    7.934115   15.381296    ( 0.0000,  0.0000,  0.0000)
 139 Li     1.829180    7.934114   15.556235    ( 0.0000,  0.0000,  0.0000)
 140 N      3.658360    7.934115   15.381296    ( 0.0000,  0.0000,  0.0000)
 141 Li     5.487540    7.934114   15.556235    ( 0.0000,  0.0000,  0.0000)
 142 Li     0.000000    9.744428   15.532813    ( 0.0000,  0.0000,  0.0000)
 143 Li     3.658360    9.744428   15.532813    ( 0.0000,  0.0000,  0.0000)

Unit cell:
           periodic     x           y           z      points  spacing
  1. axis:    yes    7.316720    0.000000    0.000000    36     0.2032
  2. axis:    yes    0.000000   11.901200    0.000000    60     0.1984
  3. axis:    yes    0.000000    0.000000   30.459499   150     0.2031

  Lengths:   7.316720  11.901200  30.459499
  Angles:   90.000000  90.000000  90.000000

Effective grid spacing dv^(1/3) = 0.2015

                     log10-error:    total        iterations:
           time      wfs    density  energy       fermi  poisson
iter:   1  18:46:42  -1.12         -501.242037    0             
iter:   2  18:46:52  -2.28  -1.79  -501.223811    0             
iter:   3  18:47:02  -2.10  -1.81  -500.933206    0             
iter:   4  18:47:12  -3.51  -1.97  -500.904095    0             
iter:   5  18:47:22  -2.45  -1.99  -500.845783    0             
iter:   6  18:47:32  -3.54  -2.18  -500.782345    0             
iter:   7  18:47:42  -4.07  -2.44  -500.764016    0             
iter:   8  18:47:52  -3.95  -2.61  -500.756840    0             
iter:   9  18:48:03  -3.92  -2.80  -500.758385    0             
iter:  10  18:48:13  -5.31  -2.82  -500.757215    0             
iter:  11  18:48:23  -4.56  -2.94  -500.756164    0             
iter:  12  18:48:33  -6.03  -3.26  -500.756028    0             
iter:  13  18:48:43  -5.31  -3.33  -500.756145    0             
iter:  14  18:48:54  -5.71  -3.47  -500.756017    0             
iter:  15  18:49:04  -6.71  -3.76  -500.756009    0             
iter:  16  18:49:14  -6.76  -3.80  -500.755997    0             
iter:  17  18:49:24  -6.34  -3.91  -500.756017    0             
iter:  18  18:49:35  -6.78  -3.92  -500.755999    0             
iter:  19  18:49:45  -7.07  -4.32  -500.756001    0             
iter:  20  18:49:55  -7.30  -4.36  -500.755998    0             
iter:  21  18:50:05  -7.92  -4.43  -500.755998    0             
iter:  22  18:50:15  -8.05  -4.59  -500.755999    0             

Converged after 22 iterations.

Dipole moment: (-0.000000, -8.870153, -12.375472) |e|*Ang

Energy contributions relative to reference atoms: (reference = -75243.058738)

Kinetic:       +736.886979
Potential:     -505.583167
External:        +0.000000
XC:            -728.628575
Entropy (-ST):   +0.000000
Local:           -3.431236
--------------------------
Free energy:   -500.755999
Extrapolated:  -500.755999

Fermi level: -0.21493

Showing all kpts
 Kpt  Band  Eigenvalues  Occupancy
  0   142     -0.74009    0.66667
  0   143     -0.70095    0.66667
  0   144      0.38589    0.00000
  0   145      0.38795    0.00000

  1   142     -0.90820    1.33333
  1   143     -0.87318    1.33333
  1   144      0.85724    0.00000
  1   145      0.86532    0.00000


Gap: 1.087 eV
Transition (v -> c):
  (s=0, k=0, n=143, [0.00, 0.25, 0.00]) -> (s=0, k=0, n=144, [0.00, 0.25, 0.00])

Forces in eV/Ang:
  0 Li    0.00000   -0.36120   -0.40740
  1 Li    0.00000   -0.36120   -0.40740
  2 N     0.00000   -0.00001   -0.02736
  3 Li    0.00000    0.00000   -0.51765
  4 N     0.00000   -0.00001   -0.02736
  5 Li   -0.00000    0.00000   -0.51765
  6 Li    0.00000    0.36123   -0.40741
  7 Li    0.00000    0.36123   -0.40741
  8 Li    0.00000   -0.36120   -0.40740
  9 Li    0.00000   -0.36120   -0.40740
 10 N     0.00000   -0.00001   -0.02736
 11 Li   -0.00000    0.00000   -0.51765
 12 N     0.00000   -0.00001   -0.02736
 13 Li    0.00000    0.00000   -0.51765
 14 Li    0.00000    0.36123   -0.40741
 15 Li    0.00000    0.36123   -0.40741
 16 Li    0.00000   -0.24446    0.17022
 17 Li    0.00000   -0.24446    0.17022
 18 Li    0.00000    0.24447    0.17022
 19 Li    0.00000    0.24447    0.17022
 20 N     0.00000    0.00000   -0.45534
 21 Li    0.00000   -0.00000   -0.23360
 22 N     0.00000    0.00000   -0.45534
 23 Li   -0.00000   -0.00000   -0.23360
 24 Li    0.00000   -0.24446    0.17022
 25 Li    0.00000   -0.24446    0.17022
 26 Li    0.00000    0.24447    0.17022
 27 Li    0.00000    0.24447    0.17022
 28 N     0.00000    0.00000   -0.45534
 29 Li   -0.00000   -0.00000   -0.23360
 30 N     0.00000    0.00000   -0.45534
 31 Li    0.00000   -0.00000   -0.23360
 32 Li    0.00000   -0.05399   -0.13929
 33 Li    0.00000   -0.05399   -0.13929
 34 N     0.00000    0.00000   -0.01131
 35 Li    0.00000    0.00000   -0.05645
 36 N     0.00000    0.00000   -0.01131
 37 Li   -0.00000    0.00000   -0.05645
 38 Li    0.00000    0.05400   -0.13929
 39 Li    0.00000    0.05400   -0.13929
 40 Li    0.00000   -0.05399   -0.13929
 41 Li    0.00000   -0.05399   -0.13929
 42 N     0.00000    0.00000   -0.01131
 43 Li   -0.00000    0.00000   -0.05645
 44 N     0.00000    0.00000   -0.01131
 45 Li    0.00000    0.00000   -0.05645
 46 Li    0.00000    0.05400   -0.13929
 47 Li    0.00000    0.05400   -0.13929
 48 Li    0.00000   -0.01251    0.02236
 49 Li    0.00000   -0.01251    0.02236
 50 Li    0.00000    0.01252    0.02236
 51 Li    0.00000    0.01252    0.02236
 52 N     0.00000    0.00000   -0.00530
 53 Li   -0.00000    0.00000   -0.00093
 54 N     0.00000    0.00000   -0.00530
 55 Li    0.00000    0.00000   -0.00093
 56 Li    0.00000   -0.01251    0.02236
 57 Li    0.00000   -0.01251    0.02236
 58 Li    0.00000    0.01252    0.02236
 59 Li    0.00000    0.01252    0.02236
 60 N     0.00000    0.00000   -0.00530
 61 Li   -0.00000    0.00000   -0.00093
 62 N     0.00000    0.00000   -0.00530
 63 Li    0.00000    0.00000   -0.00093
 64 Li    0.00000   -0.00117    0.00926
 65 Li    0.00000   -0.00117    0.00926
 66 N     0.00000    0.00000    0.00894
 67 Li    0.00000    0.00000   -0.00559
 68 N     0.00000    0.00000    0.00894
 69 Li   -0.00000    0.00000   -0.00559
 70 Li    0.00000    0.00118    0.00926
 71 Li    0.00000    0.00118    0.00926
 72 Li    0.00000   -0.00117    0.00926
 73 Li    0.00000   -0.00117    0.00926
 74 N     0.00000    0.00000    0.00894
 75 Li    0.00000    0.00000   -0.00559
 76 N     0.00000    0.00000    0.00894
 77 Li   -0.00000    0.00000   -0.00559
 78 Li    0.00000    0.00118    0.00926
 79 Li    0.00000    0.00118    0.00926
 80 Li    0.00000   -0.01132   -0.05495
 81 Li    0.00000   -0.01132   -0.05495
 82 Li    0.00000    0.01133   -0.05495
 83 Li    0.00000    0.01133   -0.05495
 84 N     0.00000    0.00000    0.02359
 85 Li    0.00000    0.00000    0.00610
 86 N     0.00000    0.00000    0.02359
 87 Li   -0.00000    0.00000    0.00610
 88 Li    0.00000   -0.01132   -0.05495
 89 Li    0.00000   -0.01132   -0.05495
 90 Li    0.00000    0.01133   -0.05495
 91 Li    0.00000    0.01133   -0.05495
 92 N     0.00000    0.00000    0.02359
 93 Li    0.00000    0.00000    0.00610
 94 N     0.00000    0.00000    0.02359
 95 Li   -0.00000    0.00000    0.00610
 96 Li    0.00000   -0.05236    0.17025
 97 Li    0.00000   -0.05236    0.17025
 98 N     0.00000    0.00000    0.03957
 99 Li    0.00000    0.00000    0.05443
100 N     0.00000    0.00000    0.03957
101 Li   -0.00000    0.00000    0.05443
102 Li    0.00000    0.05238    0.17024
103 Li    0.00000    0.05238    0.17024
104 Li    0.00000   -0.05236    0.17025
105 Li    0.00000   -0.05236    0.17025
106 N     0.00000    0.00000    0.03957
107 Li    0.00000    0.00000    0.05443
108 N     0.00000    0.00000    0.03957
109 Li   -0.00000    0.00000    0.05443
110 Li    0.00000    0.05238    0.17024
111 Li    0.00000    0.05238    0.17024
112 Li    0.00000   -0.24446   -0.17291
113 Li    0.00000   -0.24446   -0.17291
114 Li    0.00000    0.24447   -0.17291
115 Li    0.00000    0.24447   -0.17291
116 N     0.00000    0.00000    0.24225
117 Li    0.00000   -0.00000    0.25330
118 N     0.00000    0.00000    0.24225
119 Li   -0.00000   -0.00000    0.25330
120 Li    0.00000   -0.24446   -0.17291
121 Li    0.00000   -0.24446   -0.17291
122 Li    0.00000    0.24447   -0.17291
123 Li    0.00000    0.24447   -0.17291
124 N     0.00000    0.00000    0.24225
125 Li   -0.00000   -0.00000    0.25330
126 N     0.00000    0.00000    0.24225
127 Li    0.00000   -0.00000    0.25330
128 Li    0.00000   -0.35677    0.42123
129 Li    0.00000   -0.35677    0.42123
130 N     0.00000   -0.00001    0.24244
131 Li    0.00000    0.00000    0.51304
132 N     0.00000   -0.00001    0.24244
133 Li   -0.00000    0.00000    0.51304
134 Li    0.00000    0.35679    0.42123
135 Li    0.00000    0.35679    0.42123
136 Li    0.00000   -0.35677    0.42123
137 Li    0.00000   -0.35677    0.42123
138 N     0.00000   -0.00001    0.24244
139 Li   -0.00000    0.00000    0.51304
140 N     0.00000   -0.00001    0.24244
141 Li    0.00000    0.00000    0.51304
142 Li    0.00000    0.35679    0.42123
143 Li    0.00000    0.35679    0.42123

System changes: positions 

Initializing position-dependent things.

Density initialized from wave functions
        .-----------------.  
       /|                 |  
      / |                 |  
     /  |                 |  
    /   |                 |  
   /    |                 |  
  /     |                 |  
 *      |                 |  
 |      |                 |  
 |      |                 |  
 |      |                 |  
 |      |                 |  
 |      |                 |  
 |      |                 |  
 |      |                 |  
 |      |                 |  
 |      |                 |  
 |      |                 |  
 |      |                 |  
 |     Li       Li        |  
 |      | Li       Li     |  
 |    NN|   Li NN    Li   |  
 |   Lii|     Lii         |  
 | LiLi |   LiLi          |  
 |N N  Lii N N  Lii       |  
 Li   NN| LiLi NN  LiLi   |  
 | LiLii|   LiLii         |  
 |LiiLi |  LiiLi          |  
 |N    Li  N    Li        |  
 Li N NNLiLiLN NNLiLiLi   |  
 | LiLii|   LiLii         |  
 |Lii   |  Lii            |  
 |N  LiLi  N  LiLi        |  
 |  N N LiLiLN N LiLiLi   |  
 LiLiLiN| LiLiLiN         |  
 |Lii Li|  Lii Li         |  
 |   LiLi     LiLi        |  
 |N N NLiiLN-N-NLiiLi-----.  
 LiLiLi/  LiLiLi         /   
 |Li  /    Li           /    
 | Li/      Li         /     
 |N /  Li  N    Li    /      
 Li/      Li         /       
 |/                 /        
 *-----------------*         

Positions:
   0 Li     0.000000    0.171184    1.637680    ( 0.0000,  0.0000,  0.0000)
   1 Li     3.658360    0.171184    1.637680    ( 0.0000,  0.0000,  0.0000)
   2 N      0.000000    1.983515    1.793310    ( 0.0000,  0.0000,  0.0000)
   3 Li     1.829180    1.983514    1.611955    ( 0.0000,  0.0000,  0.0000)
   4 N      3.658360    1.983515    1.793310    ( 0.0000,  0.0000,  0.0000)
   5 Li     5.487540    1.983514    1.611955    ( 0.0000,  0.0000,  0.0000)
   6 Li     0.000000    3.795843    1.637680    ( 0.0000,  0.0000,  0.0000)
   7 Li     3.658360    3.795843    1.637680    ( 0.0000,  0.0000,  0.0000)
   8 Li     0.000000    6.121784    1.637680    ( 0.0000,  0.0000,  0.0000)
   9 Li     3.658360    6.121784    1.637680    ( 0.0000,  0.0000,  0.0000)
  10 N      0.000000    7.934115    1.793310    ( 0.0000,  0.0000,  0.0000)
  11 Li     1.829180    7.934114    1.611955    ( 0.0000,  0.0000,  0.0000)
  12 N      3.658360    7.934115    1.793310    ( 0.0000,  0.0000,  0.0000)
  13 Li     5.487540    7.934114    1.611955    ( 0.0000,  0.0000,  0.0000)
  14 Li     0.000000    9.746443    1.637680    ( 0.0000,  0.0000,  0.0000)
  15 Li     3.658360    9.746443    1.637680    ( 0.0000,  0.0000,  0.0000)
  16 Li     0.000000    1.007305    3.435907    ( 0.0000,  0.0000,  0.0000)
  17 Li     3.658360    1.007305    3.435907    ( 0.0000,  0.0000,  0.0000)
  18 Li     0.000000    2.959723    3.435907    ( 0.0000,  0.0000,  0.0000)
  19 Li     3.658360    2.959723    3.435907    ( 0.0000,  0.0000,  0.0000)
  20 N      0.000000    4.958815    3.358305    ( 0.0000,  0.0000,  0.0000)
  21 Li     1.829180    4.958813    3.433054    ( 0.0000,  0.0000,  0.0000)
  22 N      3.658360    4.958815    3.358305    ( 0.0000,  0.0000,  0.0000)
  23 Li     5.487540    4.958813    3.433054    ( 0.0000,  0.0000,  0.0000)
  24 Li     0.000000    6.957905    3.435907    ( 0.0000,  0.0000,  0.0000)
  25 Li     3.658360    6.957905    3.435907    ( 0.0000,  0.0000,  0.0000)
  26 Li     0.000000    8.910323    3.435907    ( 0.0000,  0.0000,  0.0000)
  27 Li     3.658360    8.910323    3.435907    ( 0.0000,  0.0000,  0.0000)
  28 N      0.000000   10.909415    3.358305    ( 0.0000,  0.0000,  0.0000)
  29 Li     1.829180   10.909413    3.433054    ( 0.0000,  0.0000,  0.0000)
  30 N      3.658360   10.909415    3.358305    ( 0.0000,  0.0000,  0.0000)
  31 Li     5.487540   10.909413    3.433054    ( 0.0000,  0.0000,  0.0000)
  32 Li     0.000000    0.008060    5.150821    ( 0.0000,  0.0000,  0.0000)
  33 Li     3.658360    0.008060    5.150821    ( 0.0000,  0.0000,  0.0000)
  34 N      0.000000    1.983515    5.168699    ( 0.0000,  0.0000,  0.0000)
  35 Li     1.829180    1.983514    5.140786    ( 0.0000,  0.0000,  0.0000)
  36 N      3.658360    1.983515    5.168699    ( 0.0000,  0.0000,  0.0000)
  37 Li     5.487540    1.983514    5.140786    ( 0.0000,  0.0000,  0.0000)
  38 Li     0.000000    3.958967    5.150821    ( 0.0000,  0.0000,  0.0000)
  39 Li     3.658360    3.958967    5.150821    ( 0.0000,  0.0000,  0.0000)
  40 Li     0.000000    5.958660    5.150821    ( 0.0000,  0.0000,  0.0000)
  41 Li     3.658360    5.958660    5.150821    ( 0.0000,  0.0000,  0.0000)
  42 N      0.000000    7.934115    5.168699    ( 0.0000,  0.0000,  0.0000)
  43 Li     1.829180    7.934114    5.140786    ( 0.0000,  0.0000,  0.0000)
  44 N      3.658360    7.934115    5.168699    ( 0.0000,  0.0000,  0.0000)
  45 Li     5.487540    7.934114    5.140786    ( 0.0000,  0.0000,  0.0000)
  46 Li     0.000000    9.909567    5.150821    ( 0.0000,  0.0000,  0.0000)
  47 Li     3.658360    9.909567    5.150821    ( 0.0000,  0.0000,  0.0000)
  48 Li     0.000000    0.994562    6.870740    ( 0.0000,  0.0000,  0.0000)
  49 Li     3.658360    0.994562    6.870740    ( 0.0000,  0.0000,  0.0000)
  50 Li     0.000000    2.972466    6.870740    ( 0.0000,  0.0000,  0.0000)
  51 Li     3.658360    2.972466    6.870740    ( 0.0000,  0.0000,  0.0000)
  52 N      0.000000    4.958815    6.869496    ( 0.0000,  0.0000,  0.0000)
  53 Li     1.829180    4.958813    6.872411    ( 0.0000,  0.0000,  0.0000)
  54 N      3.658360    4.958815    6.869496    ( 0.0000,  0.0000,  0.0000)
  55 Li     5.487540    4.958813    6.872411    ( 0.0000,  0.0000,  0.0000)
  56 Li     0.000000    6.945162    6.870740    ( 0.0000,  0.0000,  0.0000)
  57 Li     3.658360    6.945162    6.870740    ( 0.0000,  0.0000,  0.0000)
  58 Li     0.000000    8.923066    6.870740    ( 0.0000,  0.0000,  0.0000)
  59 Li     3.658360    8.923066    6.870740    ( 0.0000,  0.0000,  0.0000)
  60 N      0.000000   10.909415    6.869496    ( 0.0000,  0.0000,  0.0000)
  61 Li     1.829180   10.909413    6.872411    ( 0.0000,  0.0000,  0.0000)
  62 N      3.658360   10.909415    6.869496    ( 0.0000,  0.0000,  0.0000)
  63 Li     5.487540   10.909413    6.872411    ( 0.0000,  0.0000,  0.0000)
  64 Li     0.000000    0.001642    8.588906    ( 0.0000,  0.0000,  0.0000)
  65 Li     3.658360    0.001642    8.588906    ( 0.0000,  0.0000,  0.0000)
  66 N      0.000000    1.983515    8.582026    ( 0.0000,  0.0000,  0.0000)
  67 Li     1.829180    1.983514    8.588443    ( 0.0000,  0.0000,  0.0000)
  68 N      3.658360    1.983515    8.582026    ( 0.0000,  0.0000,  0.0000)
  69 Li     5.487540    1.983514    8.588443    ( 0.0000,  0.0000,  0.0000)
  70 Li     0.000000    3.965385    8.588906    ( 0.0000,  0.0000,  0.0000)
  71 Li     3.658360    3.965385    8.588906    ( 0.0000,  0.0000,  0.0000)
  72 Li     0.000000    5.952242    8.588906    ( 0.0000,  0.0000,  0.0000)
  73 Li     3.658360    5.952242    8.588906    ( 0.0000,  0.0000,  0.0000)
  74 N      0.000000    7.934115    8.582026    ( 0.0000,  0.0000,  0.0000)
  75 Li     1.829180    7.934114    8.588443    ( 0.0000,  0.0000,  0.0000)
  76 N      3.658360    7.934115    8.582026    ( 0.0000,  0.0000,  0.0000)
  77 Li     5.487540    7.934114    8.588443    ( 0.0000,  0.0000,  0.0000)
  78 Li     0.000000    9.915985    8.588906    ( 0.0000,  0.0000,  0.0000)
  79 Li     3.658360    9.915985    8.588906    ( 0.0000,  0.0000,  0.0000)
  80 Li     0.000000    0.994651   10.305486    ( 0.0000,  0.0000,  0.0000)
  81 Li     3.658360    0.994651   10.305486    ( 0.0000,  0.0000,  0.0000)
  82 Li     0.000000    2.972377   10.305486    ( 0.0000,  0.0000,  0.0000)
  83 Li     3.658360    2.972377   10.305486    ( 0.0000,  0.0000,  0.0000)
  84 N      0.000000    4.958815   10.317759    ( 0.0000,  0.0000,  0.0000)
  85 Li     1.829180    4.958813   10.304972    ( 0.0000,  0.0000,  0.0000)
  86 N      3.658360    4.958815   10.317759    ( 0.0000,  0.0000,  0.0000)
  87 Li     5.487540    4.958813   10.304972    ( 0.0000,  0.0000,  0.0000)
  88 Li     0.000000    6.945251   10.305486    ( 0.0000,  0.0000,  0.0000)
  89 Li     3.658360    6.945251   10.305486    ( 0.0000,  0.0000,  0.0000)
  90 Li     0.000000    8.922977   10.305486    ( 0.0000,  0.0000,  0.0000)
  91 Li     3.658360    8.922977   10.305486    ( 0.0000,  0.0000,  0.0000)
  92 N      0.000000   10.909415   10.317759    ( 0.0000,  0.0000,  0.0000)
  93 Li     1.829180   10.909413   10.304972    ( 0.0000,  0.0000,  0.0000)
  94 N      3.658360   10.909415   10.317759    ( 0.0000,  0.0000,  0.0000)
  95 Li     5.487540   10.909413   10.304972    ( 0.0000,  0.0000,  0.0000)
  96 Li     0.000000    0.007989   12.027535    ( 0.0000,  0.0000,  0.0000)
  97 Li     3.658360    0.007989   12.027535    ( 0.0000,  0.0000,  0.0000)
  98 N      0.000000    1.983515   11.999904    ( 0.0000,  0.0000,  0.0000)
  99 Li     1.829180    1.983514   12.036405    ( 0.0000,  0.0000,  0.0000)
 100 N      3.658360    1.983515   11.999904    ( 0.0000,  0.0000,  0.0000)
 101 Li     5.487540    1.983514   12.036405    ( 0.0000,  0.0000,  0.0000)
 102 Li     0.000000    3.959039   12.027535    ( 0.0000,  0.0000,  0.0000)
 103 Li     3.658360    3.959039   12.027535    ( 0.0000,  0.0000,  0.0000)
 104 Li     0.000000    5.958589   12.027535    ( 0.0000,  0.0000,  0.0000)
 105 Li     3.658360    5.958589   12.027535    ( 0.0000,  0.0000,  0.0000)
 106 N      0.000000    7.934115   11.999904    ( 0.0000,  0.0000,  0.0000)
 107 Li     1.829180    7.934114   12.036405    ( 0.0000,  0.0000,  0.0000)
 108 N      3.658360    7.934115   11.999904    ( 0.0000,  0.0000,  0.0000)
 109 Li     5.487540    7.934114   12.036405    ( 0.0000,  0.0000,  0.0000)
 110 Li     0.000000    9.909639   12.027535    ( 0.0000,  0.0000,  0.0000)
 111 Li     3.658360    9.909639   12.027535    ( 0.0000,  0.0000,  0.0000)
 112 Li     0.000000    1.007264   13.741139    ( 0.0000,  0.0000,  0.0000)
 113 Li     3.658360    1.007264   13.741139    ( 0.0000,  0.0000,  0.0000)
 114 Li     0.000000    2.959763   13.741139    ( 0.0000,  0.0000,  0.0000)
 115 Li     3.658360    2.959763   13.741139    ( 0.0000,  0.0000,  0.0000)
 116 N      0.000000    4.958815   13.834198    ( 0.0000,  0.0000,  0.0000)
 117 Li     1.829180    4.958813   13.744710    ( 0.0000,  0.0000,  0.0000)
 118 N      3.658360    4.958815   13.834198    ( 0.0000,  0.0000,  0.0000)
 119 Li     5.487540    4.958813   13.744710    ( 0.0000,  0.0000,  0.0000)
 120 Li     0.000000    6.957864   13.741139    ( 0.0000,  0.0000,  0.0000)
 121 Li     3.658360    6.957864   13.741139    ( 0.0000,  0.0000,  0.0000)
 122 Li     0.000000    8.910363   13.741139    ( 0.0000,  0.0000,  0.0000)
 123 Li     3.658360    8.910363   13.741139    ( 0.0000,  0.0000,  0.0000)
 124 N      0.000000   10.909415   13.834198    ( 0.0000,  0.0000,  0.0000)
 125 Li     1.829180   10.909413   13.744710    ( 0.0000,  0.0000,  0.0000)
 126 N      3.658360   10.909415   13.834198    ( 0.0000,  0.0000,  0.0000)
 127 Li     5.487540   10.909413   13.744710    ( 0.0000,  0.0000,  0.0000)
 128 Li     0.000000    0.171409   15.540030    ( 0.0000,  0.0000,  0.0000)
 129 Li     3.658360    0.171409   15.540030    ( 0.0000,  0.0000,  0.0000)
 130 N      0.000000    1.983515   15.383221    ( 0.0000,  0.0000,  0.0000)
 131 Li     1.829180    1.983514   15.565128    ( 0.0000,  0.0000,  0.0000)
 132 N      3.658360    1.983515   15.383221    ( 0.0000,  0.0000,  0.0000)
 133 Li     5.487540    1.983514   15.565128    ( 0.0000,  0.0000,  0.0000)
 134 Li     0.000000    3.795619   15.540030    ( 0.0000,  0.0000,  0.0000)
 135 Li     3.658360    3.795619   15.540030    ( 0.0000,  0.0000,  0.0000)
 136 Li     0.000000    6.122009   15.540030    ( 0.0000,  0.0000,  0.0000)
 137 Li     3.658360    6.122009   15.540030    ( 0.0000,  0.0000,  0.0000)
 138 N      0.000000    7.934115   15.383221    ( 0.0000,  0.0000,  0.0000)
 139 Li     1.829180    7.934114   15.565128    ( 0.0000,  0.0000,  0.0000)
 140 N      3.658360    7.934115   15.383221    ( 0.0000,  0.0000,  0.0000)
 141 Li     5.487540    7.934114   15.565128    ( 0.0000,  0.0000,  0.0000)
 142 Li     0.000000    9.746219   15.540030    ( 0.0000,  0.0000,  0.0000)
[...]
  48 Li     0.000000    0.973125    6.703620    ( 0.0000,  0.0000,  0.0000)
  49 Li     3.658360    0.973125    6.703620    ( 0.0000,  0.0000,  0.0000)
  50 Li     0.000000    2.993930    6.703620    ( 0.0000,  0.0000,  0.0000)
  51 Li     3.658360    2.993930    6.703620    ( 0.0000,  0.0000,  0.0000)
  52 N      0.000000    4.958828    6.693865    ( 0.0000,  0.0000,  0.0000)
  53 Li     1.829180    4.958827    6.690220    ( 0.0000,  0.0000,  0.0000)
  54 N      3.658360    4.958828    6.693865    ( 0.0000,  0.0000,  0.0000)
  55 Li     5.487540    4.958827    6.690220    ( 0.0000,  0.0000,  0.0000)
  56 Li     0.000000    6.923725    6.703620    ( 0.0000,  0.0000,  0.0000)
  57 Li     3.658360    6.923725    6.703620    ( 0.0000,  0.0000,  0.0000)
  58 Li     0.000000    8.944530    6.703620    ( 0.0000,  0.0000,  0.0000)
  59 Li     3.658360    8.944530    6.703620    ( 0.0000,  0.0000,  0.0000)
  60 N      0.000000   10.909428    6.693865    ( 0.0000,  0.0000,  0.0000)
  61 Li     1.829180   10.909427    6.690220    ( 0.0000,  0.0000,  0.0000)
  62 N      3.658360   10.909428    6.693865    ( 0.0000,  0.0000,  0.0000)
  63 Li     5.487540   10.909427    6.690220    ( 0.0000,  0.0000,  0.0000)
  64 Li     0.000000    0.023406    8.587929    ( 0.0000,  0.0000,  0.0000)
  65 Li     3.658360    0.023406    8.587929    ( 0.0000,  0.0000,  0.0000)
  66 N      0.000000    1.983528    8.581070    ( 0.0000,  0.0000,  0.0000)
  67 Li     1.829180    1.983527    8.587470    ( 0.0000,  0.0000,  0.0000)
  68 N      3.658360    1.983528    8.581070    ( 0.0000,  0.0000,  0.0000)
  69 Li     5.487540    1.983527    8.587470    ( 0.0000,  0.0000,  0.0000)
  70 Li     0.000000    3.943649    8.587929    ( 0.0000,  0.0000,  0.0000)
  71 Li     3.658360    3.943649    8.587929    ( 0.0000,  0.0000,  0.0000)
  72 Li     0.000000    5.974006    8.587929    ( 0.0000,  0.0000,  0.0000)
  73 Li     3.658360    5.974006    8.587929    ( 0.0000,  0.0000,  0.0000)
  74 N      0.000000    7.934128    8.581070    ( 0.0000,  0.0000,  0.0000)
  75 Li     1.829180    7.934127    8.587470    ( 0.0000,  0.0000,  0.0000)
  76 N      3.658360    7.934128    8.581070    ( 0.0000,  0.0000,  0.0000)
  77 Li     5.487540    7.934127    8.587470    ( 0.0000,  0.0000,  0.0000)
  78 Li     0.000000    9.894249    8.587929    ( 0.0000,  0.0000,  0.0000)
  79 Li     3.658360    9.894249    8.587929    ( 0.0000,  0.0000,  0.0000)
  80 Li     0.000000    0.973318   10.477422    ( 0.0000,  0.0000,  0.0000)
  81 Li     3.658360    0.973318   10.477422    ( 0.0000,  0.0000,  0.0000)
  82 Li     0.000000    2.993736   10.477422    ( 0.0000,  0.0000,  0.0000)
  83 Li     3.658360    2.993736   10.477422    ( 0.0000,  0.0000,  0.0000)
  84 N      0.000000    4.958828   10.495901    ( 0.0000,  0.0000,  0.0000)
  85 Li     1.829180    4.958827   10.488748    ( 0.0000,  0.0000,  0.0000)
  86 N      3.658360    4.958828   10.495901    ( 0.0000,  0.0000,  0.0000)
  87 Li     5.487540    4.958827   10.488748    ( 0.0000,  0.0000,  0.0000)
  88 Li     0.000000    6.923918   10.477422    ( 0.0000,  0.0000,  0.0000)
  89 Li     3.658360    6.923918   10.477422    ( 0.0000,  0.0000,  0.0000)
  90 Li     0.000000    8.944336   10.477422    ( 0.0000,  0.0000,  0.0000)
  91 Li     3.658360    8.944336   10.477422    ( 0.0000,  0.0000,  0.0000)
  92 N      0.000000   10.909428   10.495901    ( 0.0000,  0.0000,  0.0000)
  93 Li     1.829180   10.909427   10.488748    ( 0.0000,  0.0000,  0.0000)
  94 N      3.658360   10.909428   10.495901    ( 0.0000,  0.0000,  0.0000)
  95 Li     5.487540   10.909427   10.488748    ( 0.0000,  0.0000,  0.0000)
  96 Li     0.000000    0.024321   12.359403    ( 0.0000,  0.0000,  0.0000)
  97 Li     3.658360    0.024321   12.359403    ( 0.0000,  0.0000,  0.0000)
  98 N      0.000000    1.983528   12.339436    ( 0.0000,  0.0000,  0.0000)
  99 Li     1.829180    1.983527   12.373589    ( 0.0000,  0.0000,  0.0000)
 100 N      3.658360    1.983528   12.339436    ( 0.0000,  0.0000,  0.0000)
 101 Li     5.487540    1.983527   12.373589    ( 0.0000,  0.0000,  0.0000)
 102 Li     0.000000    3.942734   12.359403    ( 0.0000,  0.0000,  0.0000)
 103 Li     3.658360    3.942734   12.359403    ( 0.0000,  0.0000,  0.0000)
 104 Li     0.000000    5.974921   12.359403    ( 0.0000,  0.0000,  0.0000)
 105 Li     3.658360    5.974921   12.359403    ( 0.0000,  0.0000,  0.0000)
 106 N      0.000000    7.934128   12.339436    ( 0.0000,  0.0000,  0.0000)
 107 Li     1.829180    7.934127   12.373589    ( 0.0000,  0.0000,  0.0000)
 108 N      3.658360    7.934128   12.339436    ( 0.0000,  0.0000,  0.0000)
 109 Li     5.487540    7.934127   12.373589    ( 0.0000,  0.0000,  0.0000)
 110 Li     0.000000    9.893334   12.359403    ( 0.0000,  0.0000,  0.0000)
 111 Li     3.658360    9.893334   12.359403    ( 0.0000,  0.0000,  0.0000)
 112 Li     0.000000    0.986448   14.223901    ( 0.0000,  0.0000,  0.0000)
 113 Li     3.658360    0.986448   14.223901    ( 0.0000,  0.0000,  0.0000)
 114 Li     0.000000    2.980609   14.223901    ( 0.0000,  0.0000,  0.0000)
 115 Li     3.658360    2.980609   14.223901    ( 0.0000,  0.0000,  0.0000)
 116 N      0.000000    4.958829   14.348190    ( 0.0000,  0.0000,  0.0000)
 117 Li     1.829180    4.958827   14.335346    ( 0.0000,  0.0000,  0.0000)
 118 N      3.658360    4.958829   14.348190    ( 0.0000,  0.0000,  0.0000)
 119 Li     5.487540    4.958827   14.335346    ( 0.0000,  0.0000,  0.0000)
 120 Li     0.000000    6.937048   14.223901    ( 0.0000,  0.0000,  0.0000)
 121 Li     3.658360    6.937048   14.223901    ( 0.0000,  0.0000,  0.0000)
 122 Li     0.000000    8.931209   14.223901    ( 0.0000,  0.0000,  0.0000)
 123 Li     3.658360    8.931209   14.223901    ( 0.0000,  0.0000,  0.0000)
 124 N      0.000000   10.909429   14.348189    ( 0.0000,  0.0000,  0.0000)
 125 Li     1.829180   10.909427   14.335346    ( 0.0000,  0.0000,  0.0000)
 126 N      3.658360   10.909429   14.348189    ( 0.0000,  0.0000,  0.0000)
 127 Li     5.487540   10.909427   14.335346    ( 0.0000,  0.0000,  0.0000)
 128 Li     0.000000    0.150117   16.101281    ( 0.0000,  0.0000,  0.0000)
 129 Li     3.658360    0.150117   16.101281    ( 0.0000,  0.0000,  0.0000)
 130 N      0.000000    1.983524   15.978862    ( 0.0000,  0.0000,  0.0000)
 131 Li     1.829180    1.983528   16.466417    ( 0.0000,  0.0000,  0.0000)
 132 N      3.658360    1.983524   15.978862    ( 0.0000,  0.0000,  0.0000)
 133 Li     5.487540    1.983528   16.466417    ( 0.0000,  0.0000,  0.0000)
 134 Li     0.000000    3.816944   16.101283    ( 0.0000,  0.0000,  0.0000)
 135 Li     3.658360    3.816944   16.101283    ( 0.0000,  0.0000,  0.0000)
 136 Li     0.000000    6.100717   16.101281    ( 0.0000,  0.0000,  0.0000)
 137 Li     3.658360    6.100717   16.101281    ( 0.0000,  0.0000,  0.0000)
 138 N      0.000000    7.934124   15.978861    ( 0.0000,  0.0000,  0.0000)
 139 Li     1.829180    7.934128   16.466417    ( 0.0000,  0.0000,  0.0000)
 140 N      3.658360    7.934124   15.978861    ( 0.0000,  0.0000,  0.0000)
 141 Li     5.487540    7.934128   16.466417    ( 0.0000,  0.0000,  0.0000)
 142 Li     0.000000    9.767544   16.101283    ( 0.0000,  0.0000,  0.0000)
 143 Li     3.658360    9.767544   16.101283    ( 0.0000,  0.0000,  0.0000)

Unit cell:
           periodic     x           y           z      points  spacing
  1. axis:    yes    7.316720    0.000000    0.000000    36     0.2032
  2. axis:    yes    0.000000   11.901200    0.000000    60     0.1984
  3. axis:    yes    0.000000    0.000000   30.459499   150     0.2031

  Lengths:   7.316720  11.901200  30.459499
  Angles:   90.000000  90.000000  90.000000

Effective grid spacing dv^(1/3) = 0.2015

                     log10-error:    total        iterations:
           time      wfs    density  energy       fermi  poisson
iter:   1  20:24:11  -3.65         -505.329379    0             
iter:   2  20:24:20  -5.02  -2.82  -505.326233    0             
iter:   3  20:24:30  -4.44  -2.89  -505.321944    0             
iter:   4  20:24:39  -5.85  -3.23  -505.321539    0             
iter:   5  20:24:49  -5.57  -3.36  -505.321533    0             
iter:   6  20:24:58  -5.88  -3.55  -505.321386    0             
iter:   7  20:25:08  -6.73  -3.70  -505.321349    0             
iter:   8  20:25:18  -7.36  -3.90  -505.321348    0             
iter:   9  20:25:27  -7.03  -4.01  -505.321354    0             
iter:  10  20:25:37  -7.05  -4.13  -505.321348    0             
iter:  11  20:25:46  -8.28  -4.40  -505.321346    0             

Converged after 11 iterations.

Dipole moment: (-0.000000, -9.942277, -47.417239) |e|*Ang

Energy contributions relative to reference atoms: (reference = -75243.058738)

Kinetic:       +574.800413
Potential:     -394.300281
External:        +0.000000
XC:            -682.362760
Entropy (-ST):   -0.000000
Local:           -3.458717
--------------------------
Free energy:   -505.321346
Extrapolated:  -505.321346

Fermi level: -0.13971

Showing all kpts
 Kpt  Band  Eigenvalues  Occupancy
  0   142     -0.69654    0.66667
  0   143     -0.62611    0.66667
  0   144      0.27739    0.00000
  0   145      0.40870    0.00000

  1   142     -0.80767    1.33333
  1   143     -0.73844    1.33333
  1   144      0.70830    0.00000
  1   145      0.75746    0.00000


Gap: 0.904 eV
Transition (v -> c):
  (s=0, k=0, n=143, [0.00, 0.25, 0.00]) -> (s=0, k=0, n=144, [0.00, 0.25, 0.00])

Forces in eV/Ang:
  0 Li    0.00000   -0.00236   -0.02748
  1 Li    0.00000   -0.00236   -0.02748
  2 N     0.00000    0.00011    0.01592
  3 Li    0.00000   -0.00000    0.04124
  4 N     0.00000    0.00011    0.01592
  5 Li   -0.00000   -0.00000    0.04124
  6 Li    0.00000    0.00227   -0.02747
  7 Li    0.00000    0.00227   -0.02747
  8 Li    0.00000   -0.00236   -0.02748
  9 Li    0.00000   -0.00236   -0.02748
 10 N     0.00000    0.00011    0.01595
 11 Li    0.00000   -0.00000    0.04123
 12 N     0.00000    0.00011    0.01595
 13 Li   -0.00000   -0.00000    0.04123
 14 Li    0.00000    0.00227   -0.02747
 15 Li    0.00000    0.00227   -0.02747
 16 Li    0.00000    0.00809    0.02157
 17 Li    0.00000    0.00809    0.02157
 18 Li    0.00000   -0.00810    0.02156
 19 Li    0.00000   -0.00810    0.02156
 20 N     0.00000   -0.00000   -0.00145
 21 Li    0.00000    0.00000   -0.02019
 22 N     0.00000   -0.00000   -0.00145
 23 Li   -0.00000    0.00000   -0.02019
 24 Li    0.00000    0.00809    0.02158
 25 Li    0.00000    0.00809    0.02158
 26 Li    0.00000   -0.00809    0.02156
 27 Li    0.00000   -0.00809    0.02156
 28 N     0.00000   -0.00002   -0.00145
 29 Li    0.00000    0.00000   -0.02019
 30 N     0.00000   -0.00002   -0.00145
 31 Li   -0.00000    0.00000   -0.02019
 32 Li    0.00000   -0.01558    0.02200
 33 Li    0.00000   -0.01558    0.02200
 34 N     0.00000    0.00000   -0.00324
 35 Li    0.00000   -0.00000    0.00879
 36 N     0.00000    0.00000   -0.00324
 37 Li   -0.00000   -0.00000    0.00879
 38 Li    0.00000    0.01558    0.02200
 39 Li    0.00000    0.01558    0.02200
 40 Li    0.00000   -0.01558    0.02200
 41 Li    0.00000   -0.01558    0.02200
 42 N     0.00000    0.00000   -0.00322
 43 Li    0.00000    0.00000    0.00879
 44 N     0.00000    0.00000   -0.00322
 45 Li   -0.00000    0.00000    0.00879
 46 Li    0.00000    0.01558    0.02200
 47 Li    0.00000    0.01558    0.02200
 48 Li    0.00000    0.00305    0.02501
 49 Li    0.00000    0.00305    0.02501
 50 Li    0.00000   -0.00305    0.02501
 51 Li    0.00000   -0.00305    0.02501
 52 N     0.00000    0.00000   -0.00042
 53 Li   -0.00000    0.00000    0.02496
 54 N     0.00000    0.00000   -0.00042
 55 Li    0.00000    0.00000    0.02496
 56 Li    0.00000    0.00305    0.02501
 57 Li    0.00000    0.00305    0.02501
 58 Li    0.00000   -0.00305    0.02501
 59 Li    0.00000   -0.00305    0.02501
 60 N     0.00000    0.00000   -0.00042
 61 Li    0.00000    0.00000    0.02496
 62 N     0.00000    0.00000   -0.00042
 63 Li   -0.00000    0.00000    0.02496
 64 Li    0.00000    0.00324    0.01078
 65 Li    0.00000    0.00324    0.01078
 66 N     0.00000    0.00000    0.00906
 67 Li   -0.00000    0.00000   -0.00242
 68 N     0.00000    0.00000    0.00906
 69 Li    0.00000    0.00000   -0.00242
 70 Li    0.00000   -0.00323    0.01078
 71 Li    0.00000   -0.00323    0.01078
 72 Li    0.00000    0.00324    0.01078
 73 Li    0.00000    0.00324    0.01078
 74 N     0.00000    0.00000    0.00906
 75 Li    0.00000    0.00000   -0.00242
 76 N     0.00000    0.00000    0.00906
 77 Li   -0.00000    0.00000   -0.00242
 78 Li    0.00000   -0.00323    0.01078
 79 Li    0.00000   -0.00323    0.01078
 80 Li    0.00000   -0.00747   -0.01158
 81 Li    0.00000   -0.00747   -0.01158
 82 Li    0.00000    0.00747   -0.01158
 83 Li    0.00000    0.00747   -0.01158
 84 N     0.00000    0.00000   -0.00366
 85 Li   -0.00000    0.00000   -0.01159
 86 N     0.00000    0.00000   -0.00366
 87 Li    0.00000    0.00000   -0.01159
 88 Li    0.00000   -0.00747   -0.01158
 89 Li    0.00000   -0.00747   -0.01158
 90 Li    0.00000    0.00747   -0.01158
 91 Li    0.00000    0.00747   -0.01158
 92 N     0.00000   -0.00000   -0.00366
 93 Li    0.00000    0.00000   -0.01159
 94 N     0.00000   -0.00000   -0.00366
 95 Li   -0.00000    0.00000   -0.01159
 96 Li    0.00000    0.01118    0.02357
 97 Li    0.00000    0.01118    0.02357
 98 N     0.00000    0.00000    0.01124
 99 Li   -0.00000   -0.00000    0.00698
100 N     0.00000    0.00000    0.01124
101 Li    0.00000   -0.00000    0.00698
102 Li    0.00000   -0.01117    0.02357
103 Li    0.00000   -0.01117    0.02357
104 Li    0.00000    0.01118    0.02357
105 Li    0.00000    0.01118    0.02357
106 N     0.00000    0.00000    0.01124
107 Li   -0.00000    0.00000    0.00698
108 N     0.00000    0.00000    0.01124
109 Li    0.00000    0.00000    0.00698
110 Li    0.00000   -0.01117    0.02357
111 Li    0.00000   -0.01117    0.02357
112 Li    0.00000   -0.01308    0.00150
113 Li    0.00000   -0.01308    0.00150
114 Li    0.00000    0.01307    0.00151
115 Li    0.00000    0.01307    0.00151
116 N     0.00000   -0.00001    0.04224
117 Li    0.00000    0.00000    0.00695
118 N     0.00000   -0.00001    0.04224
119 Li   -0.00000    0.00000    0.00695
120 Li    0.00000   -0.01308    0.00150
121 Li    0.00000   -0.01308    0.00150
122 Li    0.00000    0.01308    0.00151
123 Li    0.00000    0.01308    0.00151
124 N     0.00000   -0.00002    0.04223
125 Li   -0.00000    0.00001    0.00695
126 N     0.00000   -0.00002    0.04223
127 Li    0.00000    0.00001    0.00695
128 Li    0.00000   -0.00469    0.02760
129 Li    0.00000   -0.00469    0.02760
130 N     0.00000    0.00011    0.01083
131 Li   -0.00000   -0.00000   -0.03636
132 N     0.00000    0.00011    0.01083
133 Li    0.00000   -0.00000   -0.03636
134 Li    0.00000    0.00460    0.02759
135 Li    0.00000    0.00460    0.02759
136 Li    0.00000   -0.00469    0.02760
137 Li    0.00000   -0.00469    0.02760
138 N     0.00000    0.00011    0.01081
139 Li    0.00000   -0.00000   -0.03636
140 N     0.00000    0.00011    0.01081
141 Li   -0.00000   -0.00000   -0.03636
142 Li    0.00000    0.00460    0.02759
143 Li    0.00000    0.00460    0.02759

Timing:                                      incl.     excl.
-------------------------------------------------------------------
Density initialized from wave functions:    97.444    96.079   1.5% ||
 Symmetrize density:                         1.365     1.365   0.0% |
Forces:                                    559.727   559.727   8.6% |--|
Hamiltonian:                                90.857     0.596   0.0% |
 Atomic:                                     6.181     0.301   0.0% |
  XC Correction:                             5.880     5.880   0.1% |
 Calculate atomic Hamiltonians:             74.673    74.673   1.1% |
 Communicate:                                1.626     1.626   0.0% |
 Initialize Hamiltonian:                     0.006     0.006   0.0% |
 Poisson:                                    0.139     0.139   0.0% |
 XC 3D grid:                                 7.637     7.637   0.1% |
LCAO initialization:                        14.425     0.069   0.0% |
 LCAO eigensolver:                           1.480     0.003   0.0% |
  Calculate projections:                     0.008     0.008   0.0% |
  DenseAtomicCorrection:                     0.013     0.013   0.0% |
  Distribute overlap matrix:                 0.671     0.671   0.0% |
  Orbital Layouts:                           0.249     0.249   0.0% |
  Potential matrix:                          0.513     0.513   0.0% |
  Sum over cells:                            0.024     0.024   0.0% |
 LCAO to grid:                              11.355    11.355   0.2% |
 Set positions (LCAO WFS):                   1.520     0.456   0.0% |
  Basic WFS set positions:                   0.013     0.013   0.0% |
  Basis functions set positions:             0.001     0.001   0.0% |
  P tci:                                     0.308     0.308   0.0% |
  ST tci:                                    0.207     0.207   0.0% |
  mktci:                                     0.534     0.534   0.0% |
PWDescriptor:                                0.530     0.530   0.0% |
Redistribute:                                0.055     0.055   0.0% |
SCF-cycle:                                5669.606     0.876   0.0% |
 Davidson:                                2125.300   854.654  13.1% |----|
  Apply H:                                 228.027   223.832   3.4% ||
   HMM T:                                    4.195     4.195   0.1% |
  Subspace diag:                           326.410     0.184   0.0% |
   calc_h_matrix:                          256.726    26.206   0.4% |
    Apply H:                               230.519   220.112   3.4% ||
     HMM T:                                 10.407    10.407   0.2% |
   diagonalize:                              9.935     9.935   0.2% |
   rotate_psi:                              59.566    59.566   0.9% |
  calc. matrices:                          557.036   162.105   2.5% ||
   Apply H:                                394.931   386.895   5.9% |-|
    HMM T:                                   8.036     8.036   0.1% |
  diagonalize:                              69.735    69.735   1.1% |
  rotate_psi:                               89.437    89.437   1.4% ||
 Density:                                 1879.069     0.020   0.0% |
  Atomic density matrices:                   6.770     6.770   0.1% |
  Mix:                                    1730.632  1730.632  26.6% |----------|
  Multipole moments:                         0.329     0.329   0.0% |
  Pseudo density:                          141.319   115.316   1.8% ||
   Symmetrize density:                      26.003    26.003   0.4% |
 Hamiltonian:                             1650.866    10.807   0.2% |
  Atomic:                                  112.410     5.732   0.1% |
   XC Correction:                          106.678   106.678   1.6% ||
  Calculate atomic Hamiltonians:          1351.762  1351.762  20.8% |-------|
  Communicate:                              29.463    29.463   0.5% |
  Poisson:                                   3.018     3.018   0.0% |
  XC 3D grid:                              143.407   143.407   2.2% ||
 Orthonormalize:                            13.494     0.011   0.0% |
  calc_s_matrix:                             0.642     0.642   0.0% |
  inverse-cholesky:                          0.198     0.198   0.0% |
  projections:                              10.723    10.723   0.2% |
  rotate_psi_s:                              1.921     1.921   0.0% |
Set symmetry:                                0.002     0.002   0.0% |
Other:                                      73.772    73.772   1.1% |
-------------------------------------------------------------------
Total:                                              6506.417 100.0%

Memory usage: 850.19 MiB
Date: Wed Jul  7 20:26:05 2021
