
  ___ ___ ___ _ _ _  
 |   |   |_  | | | | 
 | | | | | . | | | | 
 |__ |  _|___|_____|  20.1.0
 |___|_|             

User:   jywang@lbnode01
Date:   Wed Jul  7 18:06:51 2021
Arch:   x86_64
Pid:    73029
Python: 3.7.4
gpaw:   /home/jywang/intel/intelpython3/lib/python3.7/site-packages/gpaw
_gpaw:  /home/jywang/intel/intelpython3/lib/python3.7/site-packages/
        _gpaw.cpython-37m-x86_64-linux-gnu.so
ase:    /home/jywang/intel/intelpython3/lib/python3.7/site-packages/ase (version 3.19.0)
numpy:  /home/jywang/intel/intelpython3/lib/python3.7/site-packages/numpy (version 1.17.4)
scipy:  /home/jywang/intel/intelpython3/lib/python3.7/site-packages/scipy (version 1.3.2)
libxc:  4.3.4
units:  Angstrom and eV
cores: 8
OMP_NUM_THREADS: 1

Input parameters:
  convergence: {eigenstates: 1e-08}
  kpts: [7 7 7]
  mode: {ecut: 450.00000000000006,
         gammacentered: False,
         name: pw}
  occupations: {name: fermi-dirac,
                width: 0.01}
  random: True
  xc: PBE

System changes: positions, numbers, cell, pbc, initial_charges, initial_magmoms 

Initialize ...

Li-setup:
  name: Lithium
  id: 830b4218f175192f93f959cfc0aad614
  Z: 3
  valence: 1
  core: 2
  charge: 0.0
  file: /home/jywang/gpaw_paws/gpaw-setups-0.9.20000/Li.PBE.gz
  compensation charges: gauss, rc=0.33, lmax=2
  cutoffs: 1.91(filt), 2.55(core),
  valence states:
                energy  radius
    2s(1.00)    -2.874   1.058
    2p(0.00)    -1.090   1.058
    *s          24.337   1.058

  Using partial waves for Li as LCAO basis

N-setup:
  name: Nitrogen
  id: f7500608b86eaa90eef8b1d9a670dc53
  Z: 7
  valence: 5
  core: 2
  charge: 0.0
  file: /home/jywang/gpaw_paws/gpaw-setups-0.9.20000/N.PBE.gz
  compensation charges: gauss, rc=0.18, lmax=2
  cutoffs: 1.11(filt), 0.96(core),
  valence states:
                energy  radius
    2s(2.00)   -18.583   0.603
    2p(3.00)    -7.089   0.529
    *s           8.629   0.603
    *p          20.123   0.529
    *d           0.000   0.577

  Using partial waves for N as LCAO basis

Reference energy: -2090.084965

Spin-paired calculation

Occupation numbers:
  Fermi-Dirac: width=0.0100 eV

Convergence criteria:
  Maximum total energy change: 0.0005 eV / electron
  Maximum integral of absolute density change: 0.0001 electrons
  Maximum integral of absolute eigenstate change: 1e-08 eV^2
  Maximum number of iterations: 333

Symmetries present (total): 8

  ( 1  0  0)  ( 1  0  0)  ( 0  1  0)  ( 0  1  0)  ( 0 -1  0)  ( 0 -1  0)
  ( 0  1  0)  ( 0  1  0)  ( 1  0  0)  ( 1  0  0)  (-1  0  0)  (-1  0  0)
  ( 0  0  1)  ( 0  0 -1)  ( 0  0  1)  ( 0  0 -1)  ( 0  0  1)  ( 0  0 -1)

  (-1  0  0)  (-1  0  0)
  ( 0 -1  0)  ( 0 -1  0)
  ( 0  0  1)  ( 0  0 -1)

343 k-points: 7 x 7 x 7 Monkhorst-Pack grid
64 k-points in the irreducible part of the Brillouin zone
       k-points in crystal coordinates                weights
   0:     0.00000000    0.00000000    0.00000000          1/343
   1:     0.00000000    0.00000000    0.14285714          2/343
   2:     0.00000000    0.00000000    0.28571429          2/343
   3:     0.00000000    0.00000000    0.42857143          2/343
   4:     0.14285714   -0.14285714    0.00000000          2/343
   5:     0.14285714   -0.14285714    0.14285714          4/343
   6:     0.14285714   -0.14285714    0.28571429          4/343
   7:     0.14285714   -0.14285714    0.42857143          4/343
   8:     0.14285714    0.00000000    0.00000000          4/343
   9:     0.14285714    0.00000000    0.14285714          8/343
          ...
  63:     0.42857143    0.42857143    0.42857143          4/343

Wave functions: Plane wave expansion
  Cutoff energy: 450.000 eV
  Number of coefficients (min, max): 964, 998
  Pulay-stress correction: 0.000000 eV/Ang^3 (de/decut=0.000000)
  Using FFTW library
  ScaLapack parameters: grid=1x1, blocksize=None
  Wavefunction extrapolation:
    Improved wavefunction reuse through dual PAW basis 

Eigensolver
   Davidson(niter=2, smin=None, normalize=True) 

Densities:
  Coarse grid: 18*18*20 grid
  Fine grid: 36*36*40 grid
  Total Charge: 0.000000 

Density mixing:
  Method: separate
  Backend: pulay
  Linear mixing parameter: 0.05
  Mixing with 5 old densities
  Damping of long wave oscillations: 50 

Hamiltonian:
  XC and Coulomb potentials evaluated on a 36*36*40 grid
  Using the PBE Exchange-Correlation functional
 

XC parameters: PBE with 2 nearest neighbor stencil

Memory estimate:
  Process memory now: 80.23 MiB
  Calculator: 6.68 MiB
    Density: 3.07 MiB
      Arrays: 1.29 MiB
      Localized functions: 1.29 MiB
      Mixer: 0.49 MiB
    Hamiltonian: 0.87 MiB
      Arrays: 0.84 MiB
      XC: 0.00 MiB
      Poisson: 0.00 MiB
      vbar: 0.03 MiB
    Wavefunctions: 2.74 MiB
      Arrays psit_nG: 1.10 MiB
      Eigensolver: 0.23 MiB
      Projections: 0.03 MiB
      Projectors: 1.01 MiB
      PW-descriptor: 0.37 MiB

Total number of cores used: 8
Parallelization over k-points: 8

Number of atoms: 4
Number of atomic orbitals: 16
Number of bands in calculation: 9
Number of valence electrons: 8
Bands to converge: occupied

... initialized

Initializing position-dependent things.

Density initialized from atomic densities
Creating initial wave functions:
  9 bands from LCAO basis set

                      
                      
                      
                      
                      
       Li             
        Li            
       N    Li        
                      
                      
                      
                      

Positions:
   0 Li    -0.000002    2.111717    0.000000    ( 0.0000,  0.0000,  0.0000)
   1 Li     1.828802    1.055857    0.000000    ( 0.0000,  0.0000,  0.0000)
   2 Li     0.000000    0.000000    1.936750    ( 0.0000,  0.0000,  0.0000)
   3 N      0.000000    0.000000    0.000000    ( 0.0000,  0.0000,  0.0000)

Unit cell:
           periodic     x           y           z      points  spacing
  1. axis:    yes    3.657600    0.000000    0.000000    18     0.1760
  2. axis:    yes   -1.828800    3.167575    0.000000    18     0.1760
  3. axis:    yes    0.000000    0.000000    3.873500    20     0.1937

  Lengths:   3.657600   3.657600   3.873500
  Angles:   90.000000  90.000000 120.000000

Effective grid spacing dv^(1/3) = 0.1906

                     log10-error:    total        iterations:
           time      wfs    density  energy       fermi  poisson
iter:   1  18:06:54                 -16.327004    0             
iter:   2  18:06:55  -1.53  -0.54   -15.829846    0             
iter:   3  18:06:55  -1.12  -0.59   -14.775676    0             
iter:   4  18:06:55  -1.74  -0.84   -14.569776    10            
iter:   5  18:06:55  -1.91  -1.07   -14.511574    0             
iter:   6  18:06:56  -2.83  -1.83   -14.507018    10            
iter:   7  18:06:56  -3.18  -1.87   -14.511061    0             
iter:   8  18:06:56  -3.41  -1.74   -14.506052    0             
iter:   9  18:06:56  -4.89  -2.84   -14.506046    0             
iter:  10  18:06:57  -5.96  -2.85   -14.506049    0             
iter:  11  18:06:57  -6.42  -3.50   -14.506048    0             
iter:  12  18:06:57  -7.88  -3.89   -14.506048    0             
iter:  13  18:06:57  -6.99  -3.90   -14.506048    0             
iter:  14  18:06:58  -6.74  -4.00   -14.506048    0             
iter:  15  18:06:58  -8.23  -3.91   -14.506048    0             
iter:  16  18:06:58  -7.71  -4.07   -14.506048    0             
iter:  17  18:06:58  -8.63  -4.58   -14.506048    0             

Converged after 17 iterations.

Dipole moment: (0.000000, -0.000000, 0.000000) |e|*Ang

Energy contributions relative to reference atoms: (reference = -2090.084965)

Kinetic:        +10.966394
Potential:       -7.473804
External:        +0.000000
XC:             -17.909324
Entropy (-ST):   -0.000000
Local:           -0.089313
--------------------------
Free energy:    -14.506048
Extrapolated:   -14.506048

Fermi level: 1.63590

Showing only first 2 kpts
 Kpt  Band  Eigenvalues  Occupancy
  0     2      1.09801    0.00583
  0     3      1.09836    0.00583
  0     4      2.27218    0.00000
  0     5      8.52028    0.00000

  1     2      1.15435    0.01166
  1     3      1.15470    0.01166
  1     4      2.84939    0.00000
  1     5      8.64442    0.00000


Gap: 0.989 eV
Transition (v -> c):
  (s=0, k=3, n=3, [0.00, 0.00, 0.43]) -> (s=0, k=0, n=4, [0.00, 0.00, 0.00])
Stress tensor:
     0.074411     0.000040     0.000000
     0.000040     0.074458     0.000000
     0.000000     0.000000     0.068599
System changes: cell, positions 

Initialize ...

Li-setup:
  name: Lithium
  id: 830b4218f175192f93f959cfc0aad614
  Z: 3
  valence: 1
  core: 2
  charge: 0.0
  file: /home/jywang/gpaw_paws/gpaw-setups-0.9.20000/Li.PBE.gz
  compensation charges: gauss, rc=0.33, lmax=2
  cutoffs: 1.91(filt), 2.55(core),
  valence states:
                energy  radius
    2s(1.00)    -2.874   1.058
    2p(0.00)    -1.090   1.058
    *s          24.337   1.058

  Using partial waves for Li as LCAO basis

N-setup:
  name: Nitrogen
  id: f7500608b86eaa90eef8b1d9a670dc53
  Z: 7
  valence: 5
  core: 2
  charge: 0.0
  file: /home/jywang/gpaw_paws/gpaw-setups-0.9.20000/N.PBE.gz
  compensation charges: gauss, rc=0.18, lmax=2
  cutoffs: 1.11(filt), 0.96(core),
  valence states:
                energy  radius
    2s(2.00)   -18.583   0.603
    2p(3.00)    -7.089   0.529
    *s           8.629   0.603
    *p          20.123   0.529
    *d           0.000   0.577

  Using partial waves for N as LCAO basis

Reference energy: -2090.084965

Spin-paired calculation

Occupation numbers:
  Fermi-Dirac: width=0.0100 eV

Convergence criteria:
  Maximum total energy change: 0.0005 eV / electron
  Maximum integral of absolute density change: 0.0001 electrons
  Maximum integral of absolute eigenstate change: 1e-08 eV^2
  Maximum number of iterations: 333

Symmetries present (total): 4

  ( 1  0  0)  ( 1  0  0)  (-1  0  0)  (-1  0  0)
  ( 0  1  0)  ( 0  1  0)  ( 0 -1  0)  ( 0 -1  0)
  ( 0  0  1)  ( 0  0 -1)  ( 0  0  1)  ( 0  0 -1)

343 k-points: 7 x 7 x 7 Monkhorst-Pack grid
100 k-points in the irreducible part of the Brillouin zone
       k-points in crystal coordinates                weights
   0:     0.00000000    0.00000000    0.00000000          1/343
   1:     0.00000000    0.00000000    0.14285714          2/343
   2:     0.00000000    0.00000000    0.28571429          2/343
   3:     0.00000000    0.00000000    0.42857143          2/343
   4:     0.00000000    0.14285714    0.00000000          2/343
   5:     0.00000000    0.14285714    0.14285714          4/343
   6:     0.00000000    0.14285714    0.28571429          4/343
   7:     0.00000000    0.14285714    0.42857143          4/343
   8:     0.00000000    0.28571429    0.00000000          2/343
   9:     0.00000000    0.28571429    0.14285714          4/343
          ...
  99:     0.42857143    0.42857143    0.42857143          4/343

Wave functions: Plane wave expansion
  Cutoff energy: 450.000 eV
  Number of coefficients (min, max): 889, 920
  Pulay-stress correction: 0.000000 eV/Ang^3 (de/decut=0.000000)
  Using FFTW library
  ScaLapack parameters: grid=1x1, blocksize=None
  Wavefunction extrapolation:
    Improved wavefunction reuse through dual PAW basis 

Eigensolver
   Davidson(niter=2, smin=None, normalize=True) 

Densities:
  Coarse grid: 18*18*20 grid
  Fine grid: 36*36*40 grid
  Total Charge: 0.000000 

Density mixing:
  Method: separate
  Backend: pulay
  Linear mixing parameter: 0.05
  Mixing with 5 old densities
  Damping of long wave oscillations: 50 

Hamiltonian:
  XC and Coulomb potentials evaluated on a 36*36*40 grid
  Using the PBE Exchange-Correlation functional
 

XC parameters: PBE with 2 nearest neighbor stencil

Memory estimate:
  Process memory now: 103.11 MiB
  Calculator: 7.45 MiB
    Density: 2.99 MiB
      Arrays: 1.29 MiB
      Localized functions: 1.21 MiB
      Mixer: 0.49 MiB
    Hamiltonian: 0.87 MiB
      Arrays: 0.84 MiB
      XC: 0.00 MiB
      Poisson: 0.00 MiB
      vbar: 0.03 MiB
    Wavefunctions: 3.59 MiB
      Arrays psit_nG: 1.52 MiB
      Eigensolver: 0.21 MiB
      Projections: 0.05 MiB
      Projectors: 1.41 MiB
      PW-descriptor: 0.42 MiB

Total number of cores used: 8
Parallelization over k-points: 8

Number of atoms: 4
Number of atomic orbitals: 16
Number of bands in calculation: 9
Number of valence electrons: 8
Bands to converge: occupied

... initialized

Initializing position-dependent things.

Density initialized from atomic densities
Creating initial wave functions:
  9 bands from LCAO basis set

                      
                      
                      
                      
                      
       Li             
         Li           
       N    Li        
                      
                      
                      
                      

Positions:
   0 Li    -0.000015    2.061661    0.000000    ( 0.0000,  0.0000,  0.0000)
   1 Li     1.785472    1.030817    0.000000    ( 0.0000,  0.0000,  0.0000)
   2 Li     0.000000    0.000000    1.894453    ( 0.0000,  0.0000,  0.0000)
   3 N      0.000000    0.000000    0.000000    ( 0.0000,  0.0000,  0.0000)

Unit cell:
           periodic     x           y           z      points  spacing
  1. axis:    yes    3.570955   -0.000024    0.000000    18     0.1718
  2. axis:    yes   -1.785498    3.092502    0.000000    18     0.1718
  3. axis:    yes    0.000000    0.000000    3.788907    20     0.1894

  Lengths:   3.570955   3.570934   3.788907
  Angles:   90.000000  90.000000 120.000945

Effective grid spacing dv^(1/3) = 0.1862

                     log10-error:    total        iterations:
           time      wfs    density  energy       fermi  poisson
iter:   1  18:07:02                 -16.417253    0             
iter:   2  18:07:02  -1.55  -0.54   -15.884622    0             
iter:   3  18:07:03  -1.09  -0.59   -14.699660    0             
iter:   4  18:07:03  -1.83  -0.85   -14.499216    0             
iter:   5  18:07:03  -1.92  -1.08   -14.444850    10            
iter:   6  18:07:04  -2.87  -1.86   -14.441735    3             
iter:   7  18:07:04  -3.34  -1.85   -14.443998    0             
iter:   8  18:07:04  -3.57  -1.81   -14.440524    0             
iter:   9  18:07:05  -5.07  -2.87   -14.440526    0             
iter:  10  18:07:06  -5.77  -2.80   -14.440524    0             
iter:  11  18:07:06  -6.59  -3.62   -14.440523    0             
iter:  12  18:07:07  -8.33  -3.91   -14.440523    0             
iter:  13  18:07:07  -7.45  -3.91   -14.440523    0             
iter:  14  18:07:07  -6.93  -3.97   -14.440524    0             
iter:  15  18:07:08  -7.83  -3.84   -14.440523    0             
iter:  16  18:07:08  -7.65  -4.01   -14.440523    0             
iter:  17  18:07:08  -8.80  -4.20   -14.440523    0             

Converged after 17 iterations.

Dipole moment: (0.000000, -0.000000, -0.000000) |e|*Ang

Energy contributions relative to reference atoms: (reference = -2090.084965)

Kinetic:        +14.674556
Potential:      -10.053881
External:        +0.000000
XC:             -18.971733
Entropy (-ST):   -0.000000
Local:           -0.089464
--------------------------
Free energy:    -14.440523
Extrapolated:   -14.440523

Fermi level: 1.90196

Showing only first 2 kpts
 Kpt  Band  Eigenvalues  Occupancy
  0     2      1.40385    0.00583
  0     3      1.40408    0.00583
  0     4      2.74267    0.00000
  0     5      9.09673    0.00000

  1     2      1.42770    0.01166
  1     3      1.42794    0.01166
  1     4      3.33511    0.00000
  1     5      9.22660    0.00000


Gap: 1.134 eV
Transition (v -> c):
  (s=0, k=3, n=3, [0.00, 0.00, 0.43]) -> (s=0, k=0, n=4, [0.00, 0.00, 0.00])
Stress tensor:
     0.052696     0.000026     0.000000
     0.000026     0.052729     0.000000
     0.000000     0.000000     0.047650
System changes: cell, positions 

Initialize ...

Li-setup:
  name: Lithium
  id: 830b4218f175192f93f959cfc0aad614
  Z: 3
  valence: 1
  core: 2
  charge: 0.0
  file: /home/jywang/gpaw_paws/gpaw-setups-0.9.20000/Li.PBE.gz
  compensation charges: gauss, rc=0.33, lmax=2
  cutoffs: 1.91(filt), 2.55(core),
  valence states:
                energy  radius
    2s(1.00)    -2.874   1.058
    2p(0.00)    -1.090   1.058
    *s          24.337   1.058

  Using partial waves for Li as LCAO basis

N-setup:
  name: Nitrogen
  id: f7500608b86eaa90eef8b1d9a670dc53
  Z: 7
  valence: 5
  core: 2
  charge: 0.0
  file: /home/jywang/gpaw_paws/gpaw-setups-0.9.20000/N.PBE.gz
  compensation charges: gauss, rc=0.18, lmax=2
  cutoffs: 1.11(filt), 0.96(core),
  valence states:
                energy  radius
    2s(2.00)   -18.583   0.603
    2p(3.00)    -7.089   0.529
    *s           8.629   0.603
    *p          20.123   0.529
    *d           0.000   0.577

  Using partial waves for N as LCAO basis

Reference energy: -2090.084965

Spin-paired calculation

Occupation numbers:
  Fermi-Dirac: width=0.0100 eV

Convergence criteria:
  Maximum total energy change: 0.0005 eV / electron
  Maximum integral of absolute density change: 0.0001 electrons
  Maximum integral of absolute eigenstate change: 1e-08 eV^2
  Maximum number of iterations: 333

Symmetries present (total): 4

  ( 1  0  0)  ( 1  0  0)  (-1  0  0)  (-1  0  0)
  ( 0  1  0)  ( 0  1  0)  ( 0 -1  0)  ( 0 -1  0)
  ( 0  0  1)  ( 0  0 -1)  ( 0  0  1)  ( 0  0 -1)

343 k-points: 7 x 7 x 7 Monkhorst-Pack grid
100 k-points in the irreducible part of the Brillouin zone
       k-points in crystal coordinates                weights
   0:     0.00000000    0.00000000    0.00000000          1/343
   1:     0.00000000    0.00000000    0.14285714          2/343
   2:     0.00000000    0.00000000    0.28571429          2/343
   3:     0.00000000    0.00000000    0.42857143          2/343
   4:     0.00000000    0.14285714    0.00000000          2/343
   5:     0.00000000    0.14285714    0.14285714          4/343
   6:     0.00000000    0.14285714    0.28571429          4/343
   7:     0.00000000    0.14285714    0.42857143          4/343
   8:     0.00000000    0.28571429    0.00000000          2/343
   9:     0.00000000    0.28571429    0.14285714          4/343
          ...
  99:     0.42857143    0.42857143    0.42857143          4/343

Wave functions: Plane wave expansion
  Cutoff energy: 450.000 eV
  Number of coefficients (min, max): 823, 856
  Pulay-stress correction: 0.000000 eV/Ang^3 (de/decut=0.000000)
  Using FFTW library
  ScaLapack parameters: grid=1x1, blocksize=None
  Wavefunction extrapolation:
    Improved wavefunction reuse through dual PAW basis 

Eigensolver
   Davidson(niter=2, smin=None, normalize=True) 

Densities:
  Coarse grid: 18*18*20 grid
  Fine grid: 36*36*40 grid
  Total Charge: 0.000000 

Density mixing:
  Method: separate
  Backend: pulay
  Linear mixing parameter: 0.05
  Mixing with 5 old densities
  Damping of long wave oscillations: 50 

Hamiltonian:
  XC and Coulomb potentials evaluated on a 36*36*40 grid
  Using the PBE Exchange-Correlation functional
 

XC parameters: PBE with 2 nearest neighbor stencil

Memory estimate:
  Process memory now: 108.26 MiB
  Calculator: 7.13 MiB
    Density: 2.90 MiB
      Arrays: 1.29 MiB
      Localized functions: 1.12 MiB
      Mixer: 0.49 MiB
    Hamiltonian: 0.87 MiB
      Arrays: 0.84 MiB
      XC: 0.00 MiB
      Poisson: 0.00 MiB
      vbar: 0.03 MiB
    Wavefunctions: 3.36 MiB
      Arrays psit_nG: 1.41 MiB
      Eigensolver: 0.20 MiB
      Projections: 0.05 MiB
      Projectors: 1.30 MiB
      PW-descriptor: 0.40 MiB

Total number of cores used: 8
Parallelization over k-points: 8

Number of atoms: 4
Number of atomic orbitals: 16
Number of bands in calculation: 9
Number of valence electrons: 8
Bands to converge: occupied

... initialized

Initializing position-dependent things.

Density initialized from atomic densities
Creating initial wave functions:
  9 bands from LCAO basis set

                      
                      
                      
                      
                      
       Li             
         Li           
       N    Li        
                      
                      
                      
                      

Positions:
   0 Li    -0.000026    2.011034    0.000000    ( 0.0000,  0.0000,  0.0000)
   1 Li     1.741651    1.005494    0.000000    ( 0.0000,  0.0000,  0.0000)
   2 Li     0.000000    0.000000    1.853314    ( 0.0000,  0.0000,  0.0000)
   3 N      0.000000    0.000000    0.000000    ( 0.0000,  0.0000,  0.0000)

Unit cell:
           periodic     x           y           z      points  spacing
  1. axis:    yes    3.483323   -0.000043    0.000000    18     0.1676
  2. axis:    yes   -1.741698    3.016571    0.000000    18     0.1676
  3. axis:    yes    0.000000    0.000000    3.706628    20     0.1853

  Lengths:   3.483323   3.483276   3.706628
  Angles:   90.000000  90.000000 120.001849

Effective grid spacing dv^(1/3) = 0.1818

                     log10-error:    total        iterations:
           time      wfs    density  energy       fermi  poisson
iter:   1  18:07:12                 -16.445409    0             
iter:   2  18:07:12  -1.58  -0.53   -15.870078    0             
iter:   3  18:07:13  -1.05  -0.58   -14.532867    0             
iter:   4  18:07:13  -1.98  -0.87   -14.344757    0             
iter:   5  18:07:13  -1.93  -1.07   -14.293282    10            
iter:   6  18:07:14  -2.99  -1.89   -14.291306    8             
iter:   7  18:07:14  -3.28  -1.84   -14.292596    0             
iter:   8  18:07:14  -3.81  -1.90   -14.290345    0             
iter:   9  18:07:15  -4.58  -2.89   -14.290403    0             
iter:  10  18:07:15  -5.01  -2.65   -14.290342    0             
iter:  11  18:07:15  -6.95  -3.92   -14.290342    0             
iter:  12  18:07:16  -7.56  -3.92   -14.290342    0             
iter:  13  18:07:16  -7.65  -3.91   -14.290342    0             
iter:  14  18:07:16  -8.00  -4.01   -14.290342    0             
iter:  15  18:07:17  -7.83  -4.04   -14.290342    0             
iter:  16  18:07:17  -8.99  -4.45   -14.290342    0             

Converged after 16 iterations.

Dipole moment: (-0.000000, 0.000000, 0.000000) |e|*Ang

Energy contributions relative to reference atoms: (reference = -2090.084965)

Kinetic:        +18.919219
Potential:      -12.995952
External:        +0.000000
XC:             -20.121093
Entropy (-ST):   -0.000000
Local:           -0.092516
--------------------------
Free energy:    -14.290342
Extrapolated:   -14.290342

Fermi level: 2.22734

Showing only first 2 kpts
 Kpt  Band  Eigenvalues  Occupancy
  0     2      1.70400    0.00583
  0     3      1.70418    0.00583
  0     4      3.25376    0.00000
  0     5      9.72139    0.00000

  1     2      1.76582    0.01166
  1     3      1.76599    0.01166
  1     4      3.85425    0.00000
  1     5      9.85721    0.00000


Gap: 1.324 eV
Transition (v -> c):
  (s=0, k=3, n=3, [0.00, 0.00, 0.43]) -> (s=0, k=0, n=4, [0.00, 0.00, 0.00])
Stress tensor:
     0.021621     0.000009     0.000000
     0.000009     0.021622     0.000000
     0.000000     0.000000     0.020201
System changes: cell, positions 

Initialize ...

Li-setup:
  name: Lithium
  id: 830b4218f175192f93f959cfc0aad614
  Z: 3
  valence: 1
  core: 2
  charge: 0.0
  file: /home/jywang/gpaw_paws/gpaw-setups-0.9.20000/Li.PBE.gz
  compensation charges: gauss, rc=0.33, lmax=2
  cutoffs: 1.91(filt), 2.55(core),
  valence states:
                energy  radius
    2s(1.00)    -2.874   1.058
    2p(0.00)    -1.090   1.058
    *s          24.337   1.058

  Using partial waves for Li as LCAO basis

N-setup:
  name: Nitrogen
  id: f7500608b86eaa90eef8b1d9a670dc53
  Z: 7
  valence: 5
  core: 2
  charge: 0.0
  file: /home/jywang/gpaw_paws/gpaw-setups-0.9.20000/N.PBE.gz
  compensation charges: gauss, rc=0.18, lmax=2
  cutoffs: 1.11(filt), 0.96(core),
  valence states:
                energy  radius
    2s(2.00)   -18.583   0.603
    2p(3.00)    -7.089   0.529
    *s           8.629   0.603
    *p          20.123   0.529
    *d           0.000   0.577

  Using partial waves for N as LCAO basis

Reference energy: -2090.084965

Spin-paired calculation

Occupation numbers:
  Fermi-Dirac: width=0.0100 eV

Convergence criteria:
  Maximum total energy change: 0.0005 eV / electron
  Maximum integral of absolute density change: 0.0001 electrons
  Maximum integral of absolute eigenstate change: 1e-08 eV^2
  Maximum number of iterations: 333

Symmetries present (total): 4

  ( 1  0  0)  ( 1  0  0)  (-1  0  0)  (-1  0  0)
  ( 0  1  0)  ( 0  1  0)  ( 0 -1  0)  ( 0 -1  0)
  ( 0  0  1)  ( 0  0 -1)  ( 0  0  1)  ( 0  0 -1)

343 k-points: 7 x 7 x 7 Monkhorst-Pack grid
100 k-points in the irreducible part of the Brillouin zone
       k-points in crystal coordinates                weights
   0:     0.00000000    0.00000000    0.00000000          1/343
   1:     0.00000000    0.00000000    0.14285714          2/343
   2:     0.00000000    0.00000000    0.28571429          2/343
   3:     0.00000000    0.00000000    0.42857143          2/343
   4:     0.00000000    0.14285714    0.00000000          2/343
   5:     0.00000000    0.14285714    0.14285714          4/343
   6:     0.00000000    0.14285714    0.28571429          4/343
   7:     0.00000000    0.14285714    0.42857143          4/343
   8:     0.00000000    0.28571429    0.00000000          2/343
   9:     0.00000000    0.28571429    0.14285714          4/343
          ...
  99:     0.42857143    0.42857143    0.42857143          4/343

Wave functions: Plane wave expansion
  Cutoff energy: 450.000 eV
  Number of coefficients (min, max): 786, 819
  Pulay-stress correction: 0.000000 eV/Ang^3 (de/decut=0.000000)
  Using FFTW library
  ScaLapack parameters: grid=1x1, blocksize=None
  Wavefunction extrapolation:
    Improved wavefunction reuse through dual PAW basis 

Eigensolver
   Davidson(niter=2, smin=None, normalize=True) 

Densities:
  Coarse grid: 18*18*18 grid
  Fine grid: 36*36*36 grid
  Total Charge: 0.000000 

Density mixing:
  Method: separate
  Backend: pulay
  Linear mixing parameter: 0.05
  Mixing with 5 old densities
  Damping of long wave oscillations: 50 

Hamiltonian:
  XC and Coulomb potentials evaluated on a 36*36*36 grid
  Using the PBE Exchange-Correlation functional
 

XC parameters: PBE with 2 nearest neighbor stencil

Memory estimate:
  Process memory now: 109.75 MiB
  Calculator: 6.65 MiB
    Density: 2.67 MiB
      Arrays: 1.16 MiB
      Localized functions: 1.07 MiB
      Mixer: 0.44 MiB
    Hamiltonian: 0.78 MiB
      Arrays: 0.76 MiB
      XC: 0.00 MiB
      Poisson: 0.00 MiB
      vbar: 0.03 MiB
    Wavefunctions: 3.20 MiB
      Arrays psit_nG: 1.35 MiB
      Eigensolver: 0.19 MiB
      Projections: 0.05 MiB
      Projectors: 1.24 MiB
      PW-descriptor: 0.37 MiB

Total number of cores used: 8
Parallelization over k-points: 8

Number of atoms: 4
Number of atomic orbitals: 16
Number of bands in calculation: 9
Number of valence electrons: 8
Bands to converge: occupied

... initialized

Initializing position-dependent things.

Density initialized from atomic densities
Creating initial wave functions:
  9 bands from LCAO basis set

                      
                      
                      
                      
                      
       Li             
         Li           
       N    Li        
                      
                      
                      
                      

Positions:
   0 Li    -0.000032    1.979685    0.000000    ( 0.0000,  0.0000,  0.0000)
   1 Li     1.714495    0.989815    0.000000    ( 0.0000,  0.0000,  0.0000)
   2 Li     0.000000    0.000000    1.826687    ( 0.0000,  0.0000,  0.0000)
   3 N      0.000000    0.000000    0.000000    ( 0.0000,  0.0000,  0.0000)

Unit cell:
           periodic     x           y           z      points  spacing
  1. axis:    yes    3.429018   -0.000052    0.000000    18     0.1650
  2. axis:    yes   -1.714554    2.969552    0.000000    18     0.1650
  3. axis:    yes    0.000000    0.000000    3.653375    18     0.2030

  Lengths:   3.429018   3.428985   3.653375
  Angles:   90.000000  90.000000 120.002071

Effective grid spacing dv^(1/3) = 0.1855

                     log10-error:    total        iterations:
           time      wfs    density  energy       fermi  poisson
iter:   1  18:07:22                 -16.416699    0             
iter:   2  18:07:22  -1.60  -0.53   -15.811018    0             
iter:   3  18:07:22  -1.03  -0.58   -14.366661    0             
iter:   4  18:07:23  -2.14  -0.88   -14.194154    0             
iter:   5  18:07:23  -1.93  -1.06   -14.142560    10            
iter:   6  18:07:23  -3.23  -1.90   -14.140445    0             
iter:   7  18:07:24  -3.22  -1.85   -14.142015    0             
iter:   8  18:07:24  -4.05  -2.00   -14.140627    0             
iter:   9  18:07:24  -4.51  -2.87   -14.140727    0             
iter:  10  18:07:25  -4.82  -2.59   -14.140622    0             
iter:  11  18:07:25  -6.99  -3.86   -14.140622    0             
iter:  12  18:07:25  -8.21  -3.93   -14.140622    0             
iter:  13  18:07:26  -7.77  -3.94   -14.140622    0             
iter:  14  18:07:26  -8.22  -4.25   -14.140622    0             

Converged after 14 iterations.

Dipole moment: (0.000000, 0.000000, -0.000000) |e|*Ang

Energy contributions relative to reference atoms: (reference = -2090.084965)

Kinetic:        +21.882018
Potential:      -15.033233
External:        +0.000000
XC:             -20.889418
Entropy (-ST):   -0.000000
Local:           -0.099989
--------------------------
Free energy:    -14.140622
Extrapolated:   -14.140622

Fermi level: 2.46341

Showing only first 2 kpts
 Kpt  Band  Eigenvalues  Occupancy
  0     2      1.92111    0.00583
  0     3      1.92126    0.00583
  0     4      3.59967    0.00000
  0     5     10.13214    0.00000

  1     2      1.96433    0.01166
  1     3      1.96447    0.01166
  1     4      4.20685    0.00000
  1     5     10.27192    0.00000


Gap: 1.438 eV
Transition (v -> c):
  (s=0, k=3, n=3, [0.00, 0.00, 0.43]) -> (s=0, k=0, n=4, [0.00, 0.00, 0.00])
Stress tensor:
    -0.003119     0.000005     0.000000
     0.000005    -0.003123     0.000000
     0.000000     0.000000    -0.002135
System changes: cell, positions 

Initialize ...

Li-setup:
  name: Lithium
  id: 830b4218f175192f93f959cfc0aad614
  Z: 3
  valence: 1
  core: 2
  charge: 0.0
  file: /home/jywang/gpaw_paws/gpaw-setups-0.9.20000/Li.PBE.gz
  compensation charges: gauss, rc=0.33, lmax=2
  cutoffs: 1.91(filt), 2.55(core),
  valence states:
                energy  radius
    2s(1.00)    -2.874   1.058
    2p(0.00)    -1.090   1.058
    *s          24.337   1.058

  Using partial waves for Li as LCAO basis

N-setup:
  name: Nitrogen
  id: f7500608b86eaa90eef8b1d9a670dc53
  Z: 7
  valence: 5
  core: 2
  charge: 0.0
  file: /home/jywang/gpaw_paws/gpaw-setups-0.9.20000/N.PBE.gz
  compensation charges: gauss, rc=0.18, lmax=2
  cutoffs: 1.11(filt), 0.96(core),
  valence states:
                energy  radius
    2s(2.00)   -18.583   0.603
    2p(3.00)    -7.089   0.529
    *s           8.629   0.603
    *p          20.123   0.529
    *d           0.000   0.577

  Using partial waves for N as LCAO basis

Reference energy: -2090.084965

Spin-paired calculation

Occupation numbers:
  Fermi-Dirac: width=0.0100 eV

Convergence criteria:
  Maximum total energy change: 0.0005 eV / electron
  Maximum integral of absolute density change: 0.0001 electrons
  Maximum integral of absolute eigenstate change: 1e-08 eV^2
  Maximum number of iterations: 333

Symmetries present (total): 4

  ( 1  0  0)  ( 1  0  0)  (-1  0  0)  (-1  0  0)
  ( 0  1  0)  ( 0  1  0)  ( 0 -1  0)  ( 0 -1  0)
  ( 0  0  1)  ( 0  0 -1)  ( 0  0  1)  ( 0  0 -1)

343 k-points: 7 x 7 x 7 Monkhorst-Pack grid
100 k-points in the irreducible part of the Brillouin zone
       k-points in crystal coordinates                weights
   0:     0.00000000    0.00000000    0.00000000          1/343
   1:     0.00000000    0.00000000    0.14285714          2/343
   2:     0.00000000    0.00000000    0.28571429          2/343
   3:     0.00000000    0.00000000    0.42857143          2/343
   4:     0.00000000    0.14285714    0.00000000          2/343
   5:     0.00000000    0.14285714    0.14285714          4/343
   6:     0.00000000    0.14285714    0.28571429          4/343
   7:     0.00000000    0.14285714    0.42857143          4/343
   8:     0.00000000    0.28571429    0.00000000          2/343
   9:     0.00000000    0.28571429    0.14285714          4/343
          ...
  99:     0.42857143    0.42857143    0.42857143          4/343

Wave functions: Plane wave expansion
  Cutoff energy: 450.000 eV
  Number of coefficients (min, max): 786, 824
  Pulay-stress correction: 0.000000 eV/Ang^3 (de/decut=0.000000)
  Using FFTW library
  ScaLapack parameters: grid=1x1, blocksize=None
  Wavefunction extrapolation:
    Improved wavefunction reuse through dual PAW basis 

Eigensolver
   Davidson(niter=2, smin=None, normalize=True) 

Densities:
  Coarse grid: 18*18*18 grid
  Fine grid: 36*36*36 grid
  Total Charge: 0.000000 

Density mixing:
  Method: separate
  Backend: pulay
  Linear mixing parameter: 0.05
  Mixing with 5 old densities
  Damping of long wave oscillations: 50 

Hamiltonian:
  XC and Coulomb potentials evaluated on a 36*36*36 grid
  Using the PBE Exchange-Correlation functional
 

XC parameters: PBE with 2 nearest neighbor stencil

Memory estimate:
  Process memory now: 110.51 MiB
  Calculator: 6.67 MiB
    Density: 2.68 MiB
      Arrays: 1.16 MiB
      Localized functions: 1.07 MiB
      Mixer: 0.44 MiB
    Hamiltonian: 0.78 MiB
      Arrays: 0.76 MiB
      XC: 0.00 MiB
      Poisson: 0.00 MiB
      vbar: 0.03 MiB
    Wavefunctions: 3.22 MiB
      Arrays psit_nG: 1.36 MiB
      Eigensolver: 0.19 MiB
      Projections: 0.05 MiB
      Projectors: 1.25 MiB
      PW-descriptor: 0.37 MiB

Total number of cores used: 8
Parallelization over k-points: 8

Number of atoms: 4
Number of atomic orbitals: 16
Number of bands in calculation: 9
Number of valence electrons: 8
Bands to converge: occupied

... initialized

Initializing position-dependent things.

Density initialized from atomic densities
Creating initial wave functions:
  9 bands from LCAO basis set

                      
                      
                      
                      
                      
       Li             
         Li           
       N    Li        
                      
                      
                      
                      

Positions:
   0 Li    -0.000034    1.983459    0.000000    ( 0.0000,  0.0000,  0.0000)
   1 Li     1.717760    0.991700    0.000000    ( 0.0000,  0.0000,  0.0000)
   2 Li     0.000000    0.000000    1.829181    ( 0.0000,  0.0000,  0.0000)
   3 N      0.000000    0.000000    0.000000    ( 0.0000,  0.0000,  0.0000)

Unit cell:
           periodic     x           y           z      points  spacing
  1. axis:    yes    3.435550   -0.000057    0.000000    18     0.1653
  2. axis:    yes   -1.717824    2.975216    0.000000    18     0.1653
  3. axis:    yes    0.000000    0.000000    3.658362    18     0.2032

  Lengths:   3.435550   3.435525   3.658362
  Angles:   90.000000  90.000000 120.002134

Effective grid spacing dv^(1/3) = 0.1858

                     log10-error:    total        iterations:
           time      wfs    density  energy       fermi  poisson
iter:   1  18:07:30                 -16.421841    0             
iter:   2  18:07:31  -1.60  -0.53   -15.819761    0             
iter:   3  18:07:31  -1.03  -0.58   -14.387905    0             
iter:   4  18:07:31  -2.12  -0.87   -14.213796    0             
iter:   5  18:07:32  -1.93  -1.06   -14.162309    0             
iter:   6  18:07:32  -3.21  -1.90   -14.160210    0             
iter:   7  18:07:32  -3.23  -1.85   -14.161713    0             
iter:   8  18:07:33  -4.04  -1.99   -14.160257    0             
iter:   9  18:07:33  -4.52  -2.87   -14.160353    0             
iter:  10  18:07:33  -4.83  -2.59   -14.160252    0             
iter:  11  18:07:34  -7.01  -3.87   -14.160252    0             
iter:  12  18:07:34  -8.22  -3.93   -14.160252    0             
iter:  13  18:07:34  -7.83  -3.94   -14.160252    0             
iter:  14  18:07:34  -8.26  -4.24   -14.160252    0             

Converged after 14 iterations.

Dipole moment: (0.000000, -0.000000, -0.000000) |e|*Ang

Energy contributions relative to reference atoms: (reference = -2090.084965)

Kinetic:        +21.540428
Potential:      -14.800438
External:        +0.000000
XC:             -20.801541
Entropy (-ST):   -0.000000
Local:           -0.098700
--------------------------
Free energy:    -14.160252
Extrapolated:   -14.160252

Fermi level: 2.46341

Showing only first 2 kpts
 Kpt  Band  Eigenvalues  Occupancy
  0     2      1.90106    0.00583
  0     3      1.90122    0.00583
  0     4      3.56086    0.00000
  0     5     10.08221    0.00000

  1     2      1.92971    0.01166
  1     3      1.92987    0.01166
  1     4      4.16630    0.00000
  1     5     10.22165    0.00000


Gap: 1.420 eV
Transition (v -> c):
  (s=0, k=3, n=3, [0.00, 0.00, 0.43]) -> (s=0, k=0, n=4, [0.00, 0.00, 0.00])
Stress tensor:
     0.000035    -0.000004     0.000000
    -0.000004     0.000026     0.000000
     0.000000     0.000000     0.000271
Timing:                              incl.     excl.
-----------------------------------------------------------
Hamiltonian:                         0.524     0.002   0.0% |
 Atomic:                             0.300     0.300   0.7% |
  XC Correction:                     0.000     0.000   0.0% |
 Calculate atomic Hamiltonians:      0.011     0.011   0.0% |
 Communicate:                        0.001     0.001   0.0% |
 Initialize Hamiltonian:             0.000     0.000   0.0% |
 Poisson:                            0.001     0.001   0.0% |
 XC 3D grid:                         0.208     0.208   0.5% |
LCAO initialization:                 8.617     0.263   0.6% |
 LCAO eigensolver:                   1.319     0.003   0.0% |
  Calculate projections:             0.002     0.002   0.0% |
  DenseAtomicCorrection:             0.008     0.008   0.0% |
  Distribute overlap matrix:         0.001     0.001   0.0% |
  Orbital Layouts:                   0.012     0.012   0.0% |
  Potential matrix:                  1.071     1.071   2.4% ||
  Sum over cells:                    0.222     0.222   0.5% |
 LCAO to grid:                       5.063     5.063  11.4% |----|
 Set positions (LCAO WFS):           1.973     0.335   0.8% |
  Basic WFS set positions:           0.004     0.004   0.0% |
  Basis functions set positions:     0.000     0.000   0.0% |
  P tci:                             0.472     0.472   1.1% |
  ST tci:                            0.849     0.849   1.9% ||
  mktci:                             0.312     0.312   0.7% |
PWDescriptor:                        0.154     0.154   0.3% |
SCF-cycle:                          27.037     4.767  10.8% |---|
 Davidson:                          14.093     2.408   5.4% |-|
  Apply H:                           2.322     2.228   5.0% |-|
   HMM T:                            0.094     0.094   0.2% |
  Subspace diag:                     2.901     0.071   0.2% |
   calc_h_matrix:                    2.576     0.256   0.6% |
    Apply H:                         2.320     2.231   5.0% |-|
     HMM T:                          0.089     0.089   0.2% |
   diagonalize:                      0.128     0.128   0.3% |
   rotate_psi:                       0.126     0.126   0.3% |
  calc. matrices:                    5.886     1.288   2.9% ||
   Apply H:                          4.598     4.412  10.0% |---|
    HMM T:                           0.187     0.187   0.4% |
  diagonalize:                       0.373     0.373   0.8% |
  rotate_psi:                        0.203     0.203   0.5% |
 Density:                            1.759     0.001   0.0% |
  Atomic density matrices:           0.159     0.159   0.4% |
  Mix:                               0.341     0.341   0.8% |
  Multipole moments:                 0.012     0.012   0.0% |
  Pseudo density:                    1.246     1.085   2.5% ||
   Symmetrize density:               0.161     0.161   0.4% |
 Hamiltonian:                        6.371     0.032   0.1% |
  Atomic:                            3.480     3.480   7.9% |--|
   XC Correction:                    0.000     0.000   0.0% |
  Calculate atomic Hamiltonians:     0.155     0.155   0.4% |
  Communicate:                       0.014     0.014   0.0% |
  Poisson:                           0.017     0.017   0.0% |
  XC 3D grid:                        2.673     2.673   6.0% |-|
 Orthonormalize:                     0.046     0.004   0.0% |
  calc_s_matrix:                     0.011     0.011   0.0% |
  inverse-cholesky:                  0.009     0.009   0.0% |
  projections:                       0.018     0.018   0.0% |
  rotate_psi_s:                      0.004     0.004   0.0% |
Set symmetry:                        0.065     0.065   0.1% |
Stress:                              2.543     0.000   0.0% |
 Stress tensor:                      2.542     2.542   5.7% |-|
Other:                               5.320     5.320  12.0% |----|
-----------------------------------------------------------
Total:                                        44.259 100.0%

Memory usage: 112.14 MiB
Date: Wed Jul  7 18:07:35 2021
