
  ___ ___ ___ _ _ _  
 |   |   |_  | | | | 
 | | | | | . | | | | 
 |__ |  _|___|_____|  20.1.0
 |___|_|             

User:   jywang@lbnode01
Date:   Sun Jul 25 22:20:43 2021
Arch:   x86_64
Pid:    253008
Python: 3.7.4
gpaw:   /home/jywang/intel/intelpython3/lib/python3.7/site-packages/gpaw
_gpaw:  /home/jywang/intel/intelpython3/lib/python3.7/site-packages/
        _gpaw.cpython-37m-x86_64-linux-gnu.so
ase:    /home/jywang/intel/intelpython3/lib/python3.7/site-packages/ase (version 3.19.0)
numpy:  /home/jywang/intel/intelpython3/lib/python3.7/site-packages/numpy (version 1.17.4)
scipy:  /home/jywang/intel/intelpython3/lib/python3.7/site-packages/scipy (version 1.3.2)
libxc:  4.3.4
units:  Angstrom and eV
cores: 32
OMP_NUM_THREADS: 1

Input parameters:
  convergence: {eigenstates: 1e-08}
  kpts: [3 2 1]
  mode: {ecut: 450.00000000000006,
         gammacentered: False,
         name: pw}
  occupations: {name: fermi-dirac,
                width: 0.01}
  random: True
  xc: PBE

System changes: positions, numbers, cell, pbc, initial_charges, initial_magmoms 

Initialize ...

Li-setup:
  name: Lithium
  id: 830b4218f175192f93f959cfc0aad614
  Z: 3
  valence: 1
  core: 2
  charge: 0.0
  file: /home/jywang/gpaw_paws/gpaw-setups-0.9.20000/Li.PBE.gz
  compensation charges: gauss, rc=0.33, lmax=2
  cutoffs: 1.91(filt), 2.55(core),
  valence states:
                energy  radius
    2s(1.00)    -2.874   1.058
    2p(0.00)    -1.090   1.058
    *s          24.337   1.058

  Using partial waves for Li as LCAO basis

N-setup:
  name: Nitrogen
  id: f7500608b86eaa90eef8b1d9a670dc53
  Z: 7
  valence: 5
  core: 2
  charge: 0.0
  file: /home/jywang/gpaw_paws/gpaw-setups-0.9.20000/N.PBE.gz
  compensation charges: gauss, rc=0.18, lmax=2
  cutoffs: 1.11(filt), 0.96(core),
  valence states:
                energy  radius
    2s(2.00)   -18.583   0.603
    2p(3.00)    -7.089   0.529
    *s           8.629   0.603
    *p          20.123   0.529
    *d           0.000   0.577

  Using partial waves for N as LCAO basis

Reference energy: -42004.487119

Spin-paired calculation

Occupation numbers:
  Fermi-Dirac: width=0.0100 eV

Convergence criteria:
  Maximum total energy change: 0.0005 eV / electron
  Maximum integral of absolute density change: 0.0001 electrons
  Maximum integral of absolute eigenstate change: 1e-08 eV^2
  Maximum number of iterations: 333

Symmetries present (total): 1

  ( 1  0  0)
  ( 0  1  0)
  ( 0  0  1)

6 k-points: 3 x 2 x 1 Monkhorst-Pack grid
3 k-points in the irreducible part of the Brillouin zone
       k-points in crystal coordinates                weights
   0:     0.00000000    0.25000000    0.00000000          2/6
   1:     0.33333333   -0.25000000    0.00000000          2/6
   2:     0.33333333    0.25000000    0.00000000          2/6

Wave functions: Plane wave expansion
  Cutoff energy: 450.000 eV
  Number of coefficients (min, max): 31489, 31532
  Pulay-stress correction: 0.000000 eV/Ang^3 (de/decut=0.000000)
  Using FFTW library
  ScaLapack parameters: grid=1x1, blocksize=None
  Wavefunction extrapolation:
    Improved wavefunction reuse through dual PAW basis 

Eigensolver
   Davidson(niter=2, smin=None, normalize=True) 

Densities:
  Coarse grid: 35*36*144 grid
  Fine grid: 70*72*288 grid
  Total Charge: 0.000000 

Density mixing:
  Method: separate
  Backend: pulay
  Linear mixing parameter: 0.05
  Mixing with 5 old densities
  Damping of long wave oscillations: 50 

Hamiltonian:
  XC and Coulomb potentials evaluated on a 70*72*288 grid
  Using the PBE Exchange-Correlation functional
 

XC parameters: PBE with 2 nearest neighbor stencil

Memory estimate:
  Process memory now: 162.85 MiB
  Calculator: 209.78 MiB
    Density: 2.88 MiB
      Arrays: 1.13 MiB
      Localized functions: 1.31 MiB
      Mixer: 0.44 MiB
    Hamiltonian: 0.77 MiB
      Arrays: 0.74 MiB
      XC: 0.00 MiB
      Poisson: 0.00 MiB
      vbar: 0.03 MiB
    Wavefunctions: 206.13 MiB
      Arrays psit_nG: 145.79 MiB
      Eigensolver: 52.56 MiB
      Projections: 0.08 MiB
      Projectors: 0.38 MiB
      PW-descriptor: 7.32 MiB

Total number of cores used: 32
Domain decomposition: 2 x 2 x 8

Number of atoms: 81
Number of atomic orbitals: 324
Number of bands in calculation: 101
Number of valence electrons: 161
Bands to converge: occupied

... initialized

Initializing position-dependent things.

Density initialized from atomic densities
Creating initial wave functions:
  101 bands from LCAO basis set

     .----------------.  
    /|                |  
   / |                |  
  /  |                |  
 *   |                |  
 |   |                |  
 |   |                |  
 |   |                |  
 |   |                |  
 |   |          Li    |  
 |   |                |  
 |   |  Li Li    Li Li|  
 |   | N        N     |  
 |   |Li LiLi  Li LiLi|  
 |   N        N       |  
 |   | LiLi Li  LiLi Li  
 |   |     N        N |  
 |   Li   Li  Li   Li |  
 |   | LiN      LiN   |  
 |   |  Li Li    Li Li|  
 |   LiN      LiN     |  
 |   |Li Li    Li Li  |  
 |   N     Li N     Li|  
 |   | Li   Li  Li   Li  
 |   |   LiN      LiN |  
 |   Li   Li  Li   Li |  
 |   | LiN      LiN   |  
 |   |     Li       Li|  
 |   LiNLi    LiNLi   |  
 |   |   Li       Li  |  
 |   NLi   Li NLi   Li|  
 |   |                |  
 |   |   Li       Li  |  
 |   |                |  
 |   |                |  
 |   |                |  
 |   .----------------.  
 |  /                /   
 | /                /    
 |/                /     
 *----------------*      

Positions:
   0 Li     3.435275    0.000000    6.598843    ( 0.0000,  0.0000,  0.0000)
   1 Li     6.870825    0.000000    6.599421    ( 0.0000,  0.0000,  0.0000)
   2 Li     3.435275    3.658360    6.598843    ( 0.0000,  0.0000,  0.0000)
   3 Li     6.870825    3.658360    6.599421    ( 0.0000,  0.0000,  0.0000)
   4 Li     1.718187    1.829180    7.583766    ( 0.0000,  0.0000,  0.0000)
   5 Li     5.152363    1.829180    7.583766    ( 0.0000,  0.0000,  0.0000)
   6 Li     1.718187    5.487540    7.583766    ( 0.0000,  0.0000,  0.0000)
   7 Li     5.152363    5.487540    7.583766    ( 0.0000,  0.0000,  0.0000)
   8 Li     3.435275    0.000000    8.718815    ( 0.0000,  0.0000,  0.0000)
   9 Li     6.870825    0.000000    8.718236    ( 0.0000,  0.0000,  0.0000)
  10 Li     3.435275    3.658360    8.718815    ( 0.0000,  0.0000,  0.0000)
  11 Li     6.870825    3.658360    8.718236    ( 0.0000,  0.0000,  0.0000)
  12 Li     1.717500    0.000000    9.900144    ( 0.0000,  0.0000,  0.0000)
  13 Li     5.153050    0.000000    9.900144    ( 0.0000,  0.0000,  0.0000)
  14 Li     1.717500    3.658360    9.900144    ( 0.0000,  0.0000,  0.0000)
  15 Li     5.153050    3.658360    9.900144    ( 0.0000,  0.0000,  0.0000)
  16 Li     3.435275    1.829180   10.960564    ( 0.0000,  0.0000,  0.0000)
  17 Li     6.870825    1.829180   10.960853    ( 0.0000,  0.0000,  0.0000)
  18 Li     3.435275    5.487540   10.960564    ( 0.0000,  0.0000,  0.0000)
  19 Li     6.870825    5.487540   10.960853    ( 0.0000,  0.0000,  0.0000)
  20 Li     1.717569    0.000000   12.007100    ( 0.0000,  0.0000,  0.0000)
  21 Li     5.153050    0.000000   12.007100    ( 0.0000,  0.0000,  0.0000)
  22 Li     1.717569    3.658360   12.007100    ( 0.0000,  0.0000,  0.0000)
  23 Li     5.153050    3.658360   12.007100    ( 0.0000,  0.0000,  0.0000)
  24 Li     3.435344    0.000000   13.180330    ( 0.0000,  0.0000,  0.0000)
  25 Li     6.870894    0.000000   13.180909    ( 0.0000,  0.0000,  0.0000)
  26 Li     3.435344    3.658360   13.180330    ( 0.0000,  0.0000,  0.0000)
  27 Li     6.870894    3.658360   13.180909    ( 0.0000,  0.0000,  0.0000)
  28 Li     1.718462    1.829180   14.234386    ( 0.0000,  0.0000,  0.0000)
  29 Li     5.152226    1.829180   14.234386    ( 0.0000,  0.0000,  0.0000)
  30 Li     1.718462    5.487540   14.234386    ( 0.0000,  0.0000,  0.0000)
  31 Li     5.152226    5.487540   14.234386    ( 0.0000,  0.0000,  0.0000)
  32 Li     3.435344    0.000000   15.285550    ( 0.0000,  0.0000,  0.0000)
  33 Li     6.870894    0.000000   15.285260    ( 0.0000,  0.0000,  0.0000)
  34 Li     3.435344    3.658360   15.285550    ( 0.0000,  0.0000,  0.0000)
  35 Li     6.870894    3.658360   15.285260    ( 0.0000,  0.0000,  0.0000)
  36 Li     1.717638    0.000000   16.450681    ( 0.0000,  0.0000,  0.0000)
  37 Li     5.153119    0.000000   16.450681    ( 0.0000,  0.0000,  0.0000)
  38 Li     1.717638    3.658360   16.450681    ( 0.0000,  0.0000,  0.0000)
  39 Li     5.153119    3.658360   16.450681    ( 0.0000,  0.0000,  0.0000)
  40 Li     3.435344    1.829180   17.496927    ( 0.0000,  0.0000,  0.0000)
  41 Li     6.870963    1.829180   17.496638    ( 0.0000,  0.0000,  0.0000)
  42 Li     3.435344    5.487540   17.496927    ( 0.0000,  0.0000,  0.0000)
  43 Li     6.870963    5.487540   17.496638    ( 0.0000,  0.0000,  0.0000)
  44 Li     1.717638    0.000000   18.552140    ( 0.0000,  0.0000,  0.0000)
  45 Li     5.153119    0.000000   18.552140    ( 0.0000,  0.0000,  0.0000)
  46 Li     1.717638    3.658360   18.552140    ( 0.0000,  0.0000,  0.0000)
  47 Li     5.153119    3.658360   18.552140    ( 0.0000,  0.0000,  0.0000)
  48 Li     3.435413    0.000000   19.713222    ( 0.0000,  0.0000,  0.0000)
  49 Li     6.870963    0.000000   19.713800    ( 0.0000,  0.0000,  0.0000)
  50 Li     3.435413    3.658360   19.713222    ( 0.0000,  0.0000,  0.0000)
  51 Li     6.870963    3.658360   19.713800    ( 0.0000,  0.0000,  0.0000)
  52 Li     1.718325    1.829180   20.847403    ( 0.0000,  0.0000,  0.0000)
  53 Li     5.152500    1.829180   20.847403    ( 0.0000,  0.0000,  0.0000)
  54 Li     1.718325    5.487540   20.847403    ( 0.0000,  0.0000,  0.0000)
  55 Li     5.152500    5.487540   20.847403    ( 0.0000,  0.0000,  0.0000)
  56 Li     6.870963    0.000000   21.829433    ( 0.0000,  0.0000,  0.0000)
  57 Li     3.435413    0.000000   21.830012    ( 0.0000,  0.0000,  0.0000)
  58 Li     6.870963    3.658360   21.829433    ( 0.0000,  0.0000,  0.0000)
  59 Li     3.435413    3.658360   21.830012    ( 0.0000,  0.0000,  0.0000)
  60 N      1.719355    0.000000    7.667940    ( 0.0000,  0.0000,  0.0000)
  61 N      5.151126    0.000000    7.667940    ( 0.0000,  0.0000,  0.0000)
  62 N      1.719355    3.658360    7.667940    ( 0.0000,  0.0000,  0.0000)
  63 N      5.151126    3.658360    7.667940    ( 0.0000,  0.0000,  0.0000)
  64 N      3.435275    0.000000   10.956225    ( 0.0000,  0.0000,  0.0000)
  65 N      6.870825    0.000000   10.956515    ( 0.0000,  0.0000,  0.0000)
  66 N      3.435275    3.658360   10.956225    ( 0.0000,  0.0000,  0.0000)
  67 N      6.870825    3.658360   10.956515    ( 0.0000,  0.0000,  0.0000)
  68 N      1.719424    0.000000   14.234965    ( 0.0000,  0.0000,  0.0000)
  69 N      5.151195    0.000000   14.234965    ( 0.0000,  0.0000,  0.0000)
  70 N      1.719424    3.658360   14.234965    ( 0.0000,  0.0000,  0.0000)
  71 N      5.151195    3.658360   14.234965    ( 0.0000,  0.0000,  0.0000)
  72 N      3.435344    0.000000   17.498373    ( 0.0000,  0.0000,  0.0000)
  73 N      6.870963    0.000000   17.498373    ( 0.0000,  0.0000,  0.0000)
  74 N      3.435344    3.658360   17.498373    ( 0.0000,  0.0000,  0.0000)
  75 N      6.870963    3.658360   17.498373    ( 0.0000,  0.0000,  0.0000)
  76 N      1.719493    0.000000   20.748187    ( 0.0000,  0.0000,  0.0000)
  77 N      5.151264    0.000000   20.748187    ( 0.0000,  0.0000,  0.0000)
  78 N      1.719493    3.658360   20.748187    ( 0.0000,  0.0000,  0.0000)
  79 N      5.151264    3.658360   20.748187    ( 0.0000,  0.0000,  0.0000)
  80 Li     5.330297    4.093968   23.033701    ( 0.0000,  0.0000,  0.0000)

Unit cell:
           periodic     x           y           z      points  spacing
  1. axis:    yes    6.871100    0.000000    0.000000    35     0.1963
  2. axis:    yes    0.000000    7.316720    0.000000    36     0.2032
  3. axis:    yes    0.000000    0.000000   28.925800   144     0.2009

  Lengths:   6.871100   7.316720  28.925800
  Angles:   90.000000  90.000000  90.000000

Effective grid spacing dv^(1/3) = 0.2001

                     log10-error:    total        iterations:
           time      wfs    density  energy       fermi  poisson
iter:   1  22:21:03                -333.654539    1             
iter:   2  22:21:08  -0.97  -0.50  -319.252857    35            
iter:   3  22:21:12  -0.38  -0.56  -290.041698    4             
iter:   4  22:21:16  -1.02  -0.82  -286.887356    31            
iter:   5  22:21:21  -1.39  -0.95  -287.005360    36            
iter:   6  22:21:25  -1.74  -1.20  -285.067479    36            
iter:   7  22:21:29  -1.76  -1.46  -284.660742    34            
iter:   8  22:21:34  -2.26  -1.62  -284.436971    34            
iter:   9  22:21:38  -3.22  -1.87  -284.409468    31            
iter:  10  22:21:42  -3.36  -1.90  -284.397692    33            
iter:  11  22:21:47  -3.14  -2.01  -284.381006    34            
iter:  12  22:21:52  -3.65  -2.20  -284.370947    34            
iter:  13  22:21:56  -4.00  -2.33  -284.367853    31            
iter:  14  22:22:01  -4.40  -2.39  -284.368281    5             
iter:  15  22:22:05  -5.08  -2.46  -284.367915    4             
iter:  16  22:22:09  -4.68  -2.51  -284.368068    5             
iter:  17  22:22:14  -5.01  -2.57  -284.369019    5             
iter:  18  22:22:19  -4.56  -2.61  -284.369935    5             
iter:  19  22:22:23  -5.77  -2.69  -284.370319    4             
iter:  20  22:22:28  -4.63  -2.75  -284.370937    5             
iter:  21  22:22:35  -5.06  -3.16  -284.370524    3             
iter:  22  22:22:39  -5.90  -3.64  -284.370520    2             
iter:  23  22:22:43  -6.05  -3.68  -284.370530    4             
iter:  24  22:22:47  -6.28  -3.73  -284.370510    3             
iter:  25  22:22:52  -7.33  -3.94  -284.370509    3             
iter:  26  22:22:56  -6.35  -3.92  -284.370520    3             
iter:  27  22:23:00  -6.64  -3.84  -284.370507    3             
iter:  28  22:23:04  -7.81  -4.07  -284.370507    2             
iter:  29  22:23:08  -7.08  -4.10  -284.370513    2             
iter:  30  22:23:12  -7.24  -4.15  -284.370510    2             
iter:  31  22:23:16  -7.92  -4.40  -284.370510    2             
iter:  32  22:23:21  -7.72  -4.45  -284.370511    3             
iter:  33  22:23:25  -7.75  -4.50  -284.370511    2             
iter:  34  22:23:29  -9.01  -4.80  -284.370510    3             

Converged after 34 iterations.

Dipole moment: (0.916069, -0.076807, -0.779760) |e|*Ang

Energy contributions relative to reference atoms: (reference = -42004.487119)

Kinetic:       +309.025499
Potential:     -213.461094
External:        +0.000000
XC:            -378.075191
Entropy (-ST):   -0.007498
Local:           -1.855975
--------------------------
Free energy:   -284.374259
Extrapolated:  -284.370510

Fermi level: 0.16140

Showing only first 2 kpts
 Kpt  Band  Eigenvalues  Occupancy
  0    78     -0.43501    0.66667
  0    79     -0.26717    0.66667
  0    80      0.05127    0.66666
  0    81      0.94827    0.00000

  1    78     -0.66727    0.66667
  1    79     -0.65143    0.66667
  1    80      0.17271    0.16266
  1    81      0.93357    0.00000


No gap

Forces in eV/Ang:
  0 Li   -0.00011    0.00001   -0.04361
  1 Li   -0.00009    0.00001   -0.04310
  2 Li   -0.00011   -0.00001   -0.04367
  3 Li   -0.00009   -0.00001   -0.04316
  4 Li    0.00075   -0.00007    0.03582
  5 Li   -0.00076   -0.00007    0.03581
  6 Li    0.00075    0.00007    0.03588
  7 Li   -0.00076    0.00007    0.03587
  8 Li   -0.00011   -0.00001   -0.02880
  9 Li   -0.00010   -0.00001   -0.02903
 10 Li   -0.00012    0.00003   -0.02900
 11 Li   -0.00009    0.00003   -0.02923
 12 Li    0.00025   -0.00001   -0.00208
 13 Li   -0.00029   -0.00002   -0.00206
 14 Li    0.00025    0.00002   -0.00242
 15 Li   -0.00029    0.00002   -0.00236
 16 Li    0.00004   -0.00044   -0.04096
 17 Li    0.00002   -0.00044   -0.04121
 18 Li    0.00004    0.00043   -0.04112
 19 Li    0.00002    0.00043   -0.04138
 20 Li    0.00061    0.00002   -0.02008
 21 Li   -0.00062    0.00001   -0.02005
 22 Li    0.00061   -0.00010   -0.02166
 23 Li   -0.00062   -0.00011   -0.02155
 24 Li   -0.00023   -0.00000   -0.00941
 25 Li   -0.00030    0.00002   -0.00804
 26 Li   -0.00011   -0.00003   -0.01113
 27 Li   -0.00042   -0.00004   -0.00976
 28 Li    0.00024   -0.00313   -0.01844
 29 Li   -0.00025   -0.00284   -0.01819
 30 Li    0.00026    0.00320   -0.01785
 31 Li   -0.00028    0.00294   -0.01747
 32 Li    0.00177    0.00028   -0.02153
 33 Li   -0.00164    0.00037   -0.02438
 34 Li    0.00322    0.00029   -0.03112
 35 Li   -0.00319    0.00026   -0.03399
 36 Li    0.00092    0.00090   -0.02033
 37 Li   -0.00131    0.00000   -0.02279
 38 Li    0.00089   -0.00053   -0.02519
 39 Li   -0.00112   -0.00004   -0.03836
 40 Li   -0.01407   -0.01789   -0.00170
 41 Li    0.01379   -0.01783   -0.00132
 42 Li   -0.01153    0.01677   -0.00223
 43 Li    0.01140    0.01677   -0.00203
 44 Li    0.00065    0.00148    0.00389
 45 Li    0.00050   -0.01208   -0.08149
 46 Li   -0.00073   -0.00028   -0.02696
 47 Li    0.00042    0.00429   -0.18598
 48 Li   -0.07391   -0.00927   -0.02738
 49 Li    0.07254   -0.00909   -0.02343
 50 Li   -0.15647    0.01171   -0.08398
 51 Li    0.16008    0.01283   -0.08339
 52 Li   -0.00794   -0.04010    0.00530
 53 Li    0.00082   -0.18810   -0.01565
 54 Li   -0.01342    0.04234    0.05491
 55 Li   -0.02229    0.37220   -0.37330
 56 Li    0.04392   -0.03017    0.25031
 57 Li   -0.04026   -0.02767    0.23320
 58 Li    1.57710   -0.37554   -0.87661
 59 Li   -1.03534   -0.17835   -0.30587
 60 N     0.00326    0.00000   -0.00528
 61 N    -0.00276    0.00003   -0.00525
 62 N     0.00326   -0.00002   -0.00500
 63 N    -0.00277   -0.00004   -0.00493
 64 N    -0.00014   -0.00001    0.02734
 65 N     0.00043   -0.00002    0.02687
 66 N    -0.00023    0.00011    0.02989
 67 N     0.00047    0.00013    0.02872
 68 N     0.00263   -0.00011    0.04426
 69 N    -0.00206   -0.00009    0.04391
 70 N     0.00272   -0.00051    0.06309
 71 N    -0.00220   -0.00079    0.05905
 72 N     0.02574    0.00157   -0.00246
 73 N    -0.02547    0.00175   -0.00231
 74 N     0.06012    0.00106    0.09405
 75 N    -0.05955    0.00134    0.09475
 76 N     0.01669    0.03196   -0.20018
 77 N    -0.01301   -0.04035   -0.15255
 78 N    -0.01673   -0.03917   -0.18774
 79 N     0.09322    0.24835    1.27178
 80 Li   -0.58747    0.22124    0.46683

System changes: positions 

Initializing position-dependent things.

Density initialized from wave functions
     .----------------.  
    /|                |  
   / |                |  
  /  |                |  
 *   |                |  
 |   |                |  
 |   |                |  
 |   |                |  
 |   |                |  
 |   Li      Li Li    |  
 |   |            N   |  
 | LiLi Li LiLi  Li   |  
 |   | N        N     |  
 | Li|Li   Li  Li Li  |  
 |   N                |  
 |  Li Li   Li  Li    |  
 |   |      N       N |  
 |Li Li   Li          |  
 |   | Li N     LiN   |  
 |   |  Li Li    Li Li|  
 |   LiN      LiN     |  
 |   |Li Li    Li Li  |  
 |   N     Li N     Li|  
 |   | Li   Li  Li   Li  
 |   |   LiN      LiN |  
 |   Li   Li  Li   Li |  
 |   | LiN      LiN   |  
 |   |     Li       Li|  
 |   LiNLi    LiNLi   |  
 |   |   Li       Li  |  
 |   NLi   Li NLi   Li|  
 |   |                |  
 |   |   Li       Li  |  
 |   |                |  
 |   |                |  
 |   |                |  
 |   .----------------.  
 |  /                /   
 | /                /    
 |/                /     
 *----------------*      

Positions:
   0 Li     3.435275    0.000000    6.598843    ( 0.0000,  0.0000,  0.0000)
   1 Li     6.870825    0.000000    6.599421    ( 0.0000,  0.0000,  0.0000)
   2 Li     3.435275    3.658360    6.598843    ( 0.0000,  0.0000,  0.0000)
   3 Li     6.870825    3.658360    6.599421    ( 0.0000,  0.0000,  0.0000)
   4 Li     1.718187    1.829180    7.583766    ( 0.0000,  0.0000,  0.0000)
   5 Li     5.152363    1.829180    7.583766    ( 0.0000,  0.0000,  0.0000)
   6 Li     1.718187    5.487540    7.583766    ( 0.0000,  0.0000,  0.0000)
   7 Li     5.152363    5.487540    7.583766    ( 0.0000,  0.0000,  0.0000)
   8 Li     3.435275    0.000000    8.718815    ( 0.0000,  0.0000,  0.0000)
   9 Li     6.870825    0.000000    8.718236    ( 0.0000,  0.0000,  0.0000)
  10 Li     3.435275    3.658360    8.718815    ( 0.0000,  0.0000,  0.0000)
  11 Li     6.870825    3.658360    8.718236    ( 0.0000,  0.0000,  0.0000)
  12 Li     1.717500    0.000000    9.900144    ( 0.0000,  0.0000,  0.0000)
  13 Li     5.153050    0.000000    9.900144    ( 0.0000,  0.0000,  0.0000)
  14 Li     1.717500    3.658360    9.900144    ( 0.0000,  0.0000,  0.0000)
  15 Li     5.153050    3.658360    9.900144    ( 0.0000,  0.0000,  0.0000)
  16 Li     3.435275    1.829180   10.960564    ( 0.0000,  0.0000,  0.0000)
  17 Li     6.870825    1.829180   10.960853    ( 0.0000,  0.0000,  0.0000)
  18 Li     3.435275    5.487540   10.960564    ( 0.0000,  0.0000,  0.0000)
  19 Li     6.870825    5.487540   10.960853    ( 0.0000,  0.0000,  0.0000)
  20 Li     1.717569    0.000000   12.007100    ( 0.0000,  0.0000,  0.0000)
  21 Li     5.153050    0.000000   12.007100    ( 0.0000,  0.0000,  0.0000)
  22 Li     1.717569    3.658360   12.007100    ( 0.0000,  0.0000,  0.0000)
  23 Li     5.153050    3.658360   12.007100    ( 0.0000,  0.0000,  0.0000)
  24 Li     3.435344    0.000000   13.180330    ( 0.0000,  0.0000,  0.0000)
  25 Li     6.870894    0.000000   13.180909    ( 0.0000,  0.0000,  0.0000)
  26 Li     3.435344    3.658360   13.180330    ( 0.0000,  0.0000,  0.0000)
  27 Li     6.870894    3.658360   13.180909    ( 0.0000,  0.0000,  0.0000)
  28 Li     1.718462    1.829180   14.234386    ( 0.0000,  0.0000,  0.0000)
  29 Li     5.152226    1.829180   14.234386    ( 0.0000,  0.0000,  0.0000)
  30 Li     1.718462    5.487540   14.234386    ( 0.0000,  0.0000,  0.0000)
  31 Li     5.152226    5.487540   14.234386    ( 0.0000,  0.0000,  0.0000)
  32 Li     3.435344    0.000000   15.285550    ( 0.0000,  0.0000,  0.0000)
  33 Li     6.870894    0.000000   15.285260    ( 0.0000,  0.0000,  0.0000)
  34 Li     3.435344    3.658360   15.285550    ( 0.0000,  0.0000,  0.0000)
  35 Li     6.870894    3.658360   15.285260    ( 0.0000,  0.0000,  0.0000)
  36 Li     1.717651    0.000013   16.450390    ( 0.0000,  0.0000,  0.0000)
  37 Li     5.153100    0.000000   16.450355    ( 0.0000,  0.0000,  0.0000)
  38 Li     1.717650    3.658352   16.450321    ( 0.0000,  0.0000,  0.0000)
  39 Li     5.153103    3.658359   16.450133    ( 0.0000,  0.0000,  0.0000)
  40 Li     3.435143    1.828924   17.496903    ( 0.0000,  0.0000,  0.0000)
  41 Li     6.871160    1.828925   17.496619    ( 0.0000,  0.0000,  0.0000)
  42 Li     3.435179    5.487780   17.496895    ( 0.0000,  0.0000,  0.0000)
  43 Li     6.871125    5.487780   17.496609    ( 0.0000,  0.0000,  0.0000)
  44 Li     1.717647    0.000021   18.552196    ( 0.0000,  0.0000,  0.0000)
  45 Li     5.153126   -0.000173   18.550976    ( 0.0000,  0.0000,  0.0000)
  46 Li     1.717627    3.658356   18.551755    ( 0.0000,  0.0000,  0.0000)
  47 Li     5.153125    3.658421   18.549484    ( 0.0000,  0.0000,  0.0000)
  48 Li     3.434357   -0.000132   19.712831    ( 0.0000,  0.0000,  0.0000)
  49 Li     6.871999   -0.000130   19.713466    ( 0.0000,  0.0000,  0.0000)
  50 Li     3.433177    3.658527   19.712022    ( 0.0000,  0.0000,  0.0000)
  51 Li     6.873249    3.658543   19.712609    ( 0.0000,  0.0000,  0.0000)
  52 Li     1.718211    1.828607   20.847478    ( 0.0000,  0.0000,  0.0000)
  53 Li     5.152512    1.826493   20.847179    ( 0.0000,  0.0000,  0.0000)
  54 Li     1.718133    5.488145   20.848187    ( 0.0000,  0.0000,  0.0000)
  55 Li     5.152182    5.492857   20.842070    ( 0.0000,  0.0000,  0.0000)
  56 Li     6.871590   -0.000431   21.833009    ( 0.0000,  0.0000,  0.0000)
  57 Li     3.434837   -0.000395   21.833343    ( 0.0000,  0.0000,  0.0000)
  58 Li     6.893493    3.652995   21.816911    ( 0.0000,  0.0000,  0.0000)
  59 Li     3.420622    3.655812   21.825642    ( 0.0000,  0.0000,  0.0000)
  60 N      1.719355    0.000000    7.667940    ( 0.0000,  0.0000,  0.0000)
  61 N      5.151126    0.000000    7.667940    ( 0.0000,  0.0000,  0.0000)
  62 N      1.719355    3.658360    7.667940    ( 0.0000,  0.0000,  0.0000)
  63 N      5.151126    3.658360    7.667940    ( 0.0000,  0.0000,  0.0000)
  64 N      3.435275    0.000000   10.956225    ( 0.0000,  0.0000,  0.0000)
  65 N      6.870825    0.000000   10.956515    ( 0.0000,  0.0000,  0.0000)
  66 N      3.435275    3.658360   10.956225    ( 0.0000,  0.0000,  0.0000)
  67 N      6.870825    3.658360   10.956515    ( 0.0000,  0.0000,  0.0000)
  68 N      1.719424    0.000000   14.234965    ( 0.0000,  0.0000,  0.0000)
  69 N      5.151195    0.000000   14.234965    ( 0.0000,  0.0000,  0.0000)
  70 N      1.719424    3.658360   14.234965    ( 0.0000,  0.0000,  0.0000)
  71 N      5.151195    3.658360   14.234965    ( 0.0000,  0.0000,  0.0000)
  72 N      3.435712    0.000022   17.498338    ( 0.0000,  0.0000,  0.0000)
  73 N      6.870599    0.000025   17.498340    ( 0.0000,  0.0000,  0.0000)
  74 N      3.436203    3.658375   17.499717    ( 0.0000,  0.0000,  0.0000)
  75 N      6.870112    3.658379   17.499727    ( 0.0000,  0.0000,  0.0000)
  76 N      1.719731    0.000457   20.745327    ( 0.0000,  0.0000,  0.0000)
  77 N      5.151078   -0.000576   20.746008    ( 0.0000,  0.0000,  0.0000)
  78 N      1.719254    3.657800   20.745505    ( 0.0000,  0.0000,  0.0000)
  79 N      5.152595    3.661908   20.766355    ( 0.0000,  0.0000,  0.0000)
  80 Li     5.321905    4.097129   23.040370    ( 0.0000,  0.0000,  0.0000)

Unit cell:
           periodic     x           y           z      points  spacing
  1. axis:    yes    6.871100    0.000000    0.000000    35     0.1963
  2. axis:    yes    0.000000    7.316720    0.000000    36     0.2032
  3. axis:    yes    0.000000    0.000000   28.925800   144     0.2009

  Lengths:   6.871100   7.316720  28.925800
  Angles:   90.000000  90.000000  90.000000

Effective grid spacing dv^(1/3) = 0.2001

                     log10-error:    total        iterations:
           time      wfs    density  energy       fermi  poisson
iter:   1  22:23:36  -3.62         -284.474151    33            
iter:   2  22:23:41  -4.95  -3.16  -284.474008    3             
iter:   3  22:23:45  -4.56  -3.19  -284.473384    4             
iter:   4  22:23:50  -6.29  -3.37  -284.473293    3             
iter:   5  22:23:54  -4.59  -3.39  -284.473594    4             
iter:   6  22:23:58  -5.08  -3.40  -284.473053    4             
iter:   7  22:24:03  -6.01  -3.87  -284.473057    3             
iter:   8  22:24:08  -6.96  -4.03  -284.473052    3             
iter:   9  22:24:12  -7.68  -4.20  -284.473053    3             
iter:  10  22:24:16  -7.60  -4.37  -284.473053    2             
iter:  11  22:24:20  -8.60  -4.57  -284.473053    2             

Converged after 11 iterations.

Dipole moment: (0.715269, -0.058883, -0.792744) |e|*Ang

Energy contributions relative to reference atoms: (reference = -42004.487119)

Kinetic:       +309.006194
Potential:     -213.525053
External:        +0.000000
XC:            -378.094271
Entropy (-ST):   -0.007498
Local:           -1.856173
--------------------------
Free energy:   -284.476802
Extrapolated:  -284.473053

Fermi level: 0.18809

Showing only first 2 kpts
 Kpt  Band  Eigenvalues  Occupancy
  0    78     -0.43751    0.66667
  0    79     -0.27208    0.66667
  0    80      0.07031    0.66666
  0    81      0.95086    0.00000

  1    78     -0.67203    0.66667
  1    79     -0.65619    0.66667
  1    80      0.19936    0.16314
  1    81      0.95193    0.00000


No gap

Forces in eV/Ang:
  0 Li   -0.00011    0.00001   -0.04391
  1 Li   -0.00009    0.00001   -0.04341
  2 Li   -0.00011   -0.00001   -0.04397
  3 Li   -0.00009   -0.00001   -0.04347
  4 Li    0.00075   -0.00009    0.03601
  5 Li   -0.00076   -0.00007    0.03602
  6 Li    0.00075    0.00009    0.03607
  7 Li   -0.00076    0.00007    0.03607
  8 Li   -0.00012   -0.00001   -0.02892
  9 Li   -0.00009   -0.00001   -0.02914
 10 Li   -0.00012    0.00002   -0.02917
 11 Li   -0.00009    0.00003   -0.02940
 12 Li    0.00025   -0.00000   -0.00237
 13 Li   -0.00029   -0.00001   -0.00239
 14 Li    0.00025    0.00001   -0.00281
 15 Li   -0.00029    0.00001   -0.00274
 16 Li    0.00003   -0.00056   -0.04111
 17 Li    0.00003   -0.00056   -0.04136
 18 Li    0.00003    0.00055   -0.04131
 19 Li    0.00003    0.00055   -0.04157
 20 Li    0.00061    0.00008   -0.02025
 21 Li   -0.00061    0.00006   -0.02008
 22 Li    0.00060   -0.00014   -0.02225
 23 Li   -0.00062   -0.00015   -0.02193
 24 Li   -0.00012    0.00005   -0.00957
 25 Li   -0.00041    0.00007   -0.00820
 26 Li    0.00005   -0.00008   -0.01176
 27 Li   -0.00057   -0.00010   -0.01040
 28 Li    0.00023   -0.00396   -0.01890
 29 Li   -0.00025   -0.00359   -0.01857
 30 Li    0.00026    0.00403   -0.01812
 31 Li   -0.00028    0.00368   -0.01767
 32 Li    0.00193    0.00011   -0.02112
 33 Li   -0.00182    0.00021   -0.02388
 34 Li    0.00377    0.00042   -0.03238
 35 Li   -0.00370    0.00037   -0.03516
 36 Li    0.00081    0.00054   -0.01758
 37 Li   -0.00114   -0.00012   -0.02317
 38 Li    0.00082   -0.00026   -0.02048
 39 Li   -0.00098    0.00018   -0.04110
 40 Li   -0.01309   -0.01633   -0.00034
 41 Li    0.01281   -0.01616    0.00028
 42 Li   -0.01080    0.01590   -0.00173
 43 Li    0.01063    0.01585   -0.00112
 44 Li    0.00047    0.00204    0.00094
 45 Li    0.00042   -0.00983   -0.06791
 46 Li   -0.00014   -0.00096   -0.03088
 47 Li    0.00165    0.00518   -0.15985
 48 Li   -0.05991   -0.00623   -0.02126
 49 Li    0.05877   -0.00652   -0.01640
 50 Li   -0.10509    0.01391   -0.07121
 51 Li    0.10907    0.01725   -0.09374
 52 Li   -0.00205   -0.04825   -0.00921
 53 Li    0.00102   -0.12392   -0.00228
 54 Li   -0.01043    0.04251    0.04514
 55 Li   -0.01652    0.29308   -0.33427
 56 Li    0.03671   -0.03106    0.22849
 57 Li   -0.03372   -0.02818    0.21383
 58 Li    1.39769   -0.33167   -0.72120
 59 Li   -0.95500   -0.16447   -0.26068
 60 N     0.00326   -0.00001   -0.00528
 61 N    -0.00275    0.00002   -0.00557
 62 N     0.00326    0.00000   -0.00470
 63 N    -0.00275   -0.00002   -0.00397
 64 N    -0.00011   -0.00006    0.02729
 65 N     0.00040   -0.00007    0.02681
 66 N    -0.00020    0.00015    0.03082
 67 N     0.00041    0.00017    0.02966
 68 N     0.00257    0.00027    0.04199
 69 N    -0.00202    0.00025    0.04284
 70 N     0.00263   -0.00078    0.06554
 71 N    -0.00207   -0.00101    0.06115
 72 N     0.01679   -0.00060   -0.01415
 73 N    -0.01590   -0.00014   -0.01363
 74 N     0.05151    0.00162    0.08274
 75 N    -0.04887    0.00138    0.08553
 76 N     0.01311    0.02408   -0.18048
 77 N    -0.01110   -0.00520   -0.16147
 78 N     0.00565   -0.03815   -0.22569
 79 N     0.08518    0.19844    1.20335
 80 Li   -0.51554    0.19235    0.36142

System changes: positions 

Initializing position-dependent things.

Density initialized from wave functions
     .----------------.  
    /|                |  
   / |                |  
  /  |                |  
 *   |                |  
 |   |                |  
 |   |                |  
 |   |                |  
 |   |                |  
 |   Li      Li Li    |  
 |   |            N   |  
 | LiLi Li LiLi  Li   |  
 |   | N        N     |  
 | Li|Li   Li  Li Li  |  
 |   N                |  
 |  Li Li   Li  Li    |  
 |   |      N     LiN |  
 |Li Li   Li          |  
 |   | Li N     LiN   |  
 |   |  Li Li    Li Li|  
 |   LiN        N     |  
 |   |Li Li    Li Li  |  
 |   N     Li N     Li|  
 |   | Li   Li  Li   Li  
 |   |   LiN      LiN |  
 |   Li   Li  Li   Li |  
 |   | LiN      LiN   |  
 |   |     Li       Li|  
 |   LiNLi    LiNLi   |  
 |   |   Li       Li  |  
 |   NLi   Li NLi   Li|  
 |   |                |  
 |   |   Li       Li  |  
 |   |                |  
 |   |                |  
 |   |                |  
 |   .----------------.  
 |  /                /   
 | /                /    
 |/                /     
 *----------------*      

Positions:
   0 Li     3.435275    0.000000    6.598843    ( 0.0000,  0.0000,  0.0000)
   1 Li     6.870825    0.000000    6.599421    ( 0.0000,  0.0000,  0.0000)
   2 Li     3.435275    3.658360    6.598843    ( 0.0000,  0.0000,  0.0000)
   3 Li     6.870825    3.658360    6.599421    ( 0.0000,  0.0000,  0.0000)
   4 Li     1.718187    1.829180    7.583766    ( 0.0000,  0.0000,  0.0000)
   5 Li     5.152363    1.829180    7.583766    ( 0.0000,  0.0000,  0.0000)
   6 Li     1.718187    5.487540    7.583766    ( 0.0000,  0.0000,  0.0000)
   7 Li     5.152363    5.487540    7.583766    ( 0.0000,  0.0000,  0.0000)
   8 Li     3.435275    0.000000    8.718815    ( 0.0000,  0.0000,  0.0000)
   9 Li     6.870825    0.000000    8.718236    ( 0.0000,  0.0000,  0.0000)
  10 Li     3.435275    3.658360    8.718815    ( 0.0000,  0.0000,  0.0000)
  11 Li     6.870825    3.658360    8.718236    ( 0.0000,  0.0000,  0.0000)
  12 Li     1.717500    0.000000    9.900144    ( 0.0000,  0.0000,  0.0000)
  13 Li     5.153050    0.000000    9.900144    ( 0.0000,  0.0000,  0.0000)
  14 Li     1.717500    3.658360    9.900144    ( 0.0000,  0.0000,  0.0000)
  15 Li     5.153050    3.658360    9.900144    ( 0.0000,  0.0000,  0.0000)
  16 Li     3.435275    1.829180   10.960564    ( 0.0000,  0.0000,  0.0000)
  17 Li     6.870825    1.829180   10.960853    ( 0.0000,  0.0000,  0.0000)
  18 Li     3.435275    5.487540   10.960564    ( 0.0000,  0.0000,  0.0000)
  19 Li     6.870825    5.487540   10.960853    ( 0.0000,  0.0000,  0.0000)
  20 Li     1.717569    0.000000   12.007100    ( 0.0000,  0.0000,  0.0000)
  21 Li     5.153050    0.000000   12.007100    ( 0.0000,  0.0000,  0.0000)
  22 Li     1.717569    3.658360   12.007100    ( 0.0000,  0.0000,  0.0000)
  23 Li     5.153050    3.658360   12.007100    ( 0.0000,  0.0000,  0.0000)
  24 Li     3.435344    0.000000   13.180330    ( 0.0000,  0.0000,  0.0000)
  25 Li     6.870894    0.000000   13.180909    ( 0.0000,  0.0000,  0.0000)
  26 Li     3.435344    3.658360   13.180330    ( 0.0000,  0.0000,  0.0000)
  27 Li     6.870894    3.658360   13.180909    ( 0.0000,  0.0000,  0.0000)
  28 Li     1.718462    1.829180   14.234386    ( 0.0000,  0.0000,  0.0000)
  29 Li     5.152226    1.829180   14.234386    ( 0.0000,  0.0000,  0.0000)
  30 Li     1.718462    5.487540   14.234386    ( 0.0000,  0.0000,  0.0000)
  31 Li     5.152226    5.487540   14.234386    ( 0.0000,  0.0000,  0.0000)
  32 Li     3.435344    0.000000   15.285550    ( 0.0000,  0.0000,  0.0000)
  33 Li     6.870894    0.000000   15.285260    ( 0.0000,  0.0000,  0.0000)
  34 Li     3.435344    3.658360   15.285550    ( 0.0000,  0.0000,  0.0000)
  35 Li     6.870894    3.658360   15.285260    ( 0.0000,  0.0000,  0.0000)
  36 Li     1.717671    0.000027   16.449953    ( 0.0000,  0.0000,  0.0000)
  37 Li     5.153072   -0.000003   16.449782    ( 0.0000,  0.0000,  0.0000)
  38 Li     1.717671    3.658346   16.449810    ( 0.0000,  0.0000,  0.0000)
  39 Li     5.153079    3.658364   16.449117    ( 0.0000,  0.0000,  0.0000)
  40 Li     3.434818    1.828519   17.496894    ( 0.0000,  0.0000,  0.0000)
  41 Li     6.871478    1.828524   17.496625    ( 0.0000,  0.0000,  0.0000)
  42 Li     3.434911    5.488174   17.496852    ( 0.0000,  0.0000,  0.0000)
  43 Li     6.871389    5.488173   17.496580    ( 0.0000,  0.0000,  0.0000)
  44 Li     1.717659    0.000071   18.552221    ( 0.0000,  0.0000,  0.0000)
  45 Li     5.153136   -0.000418   18.549284    ( 0.0000,  0.0000,  0.0000)
  46 Li     1.717623    3.658333   18.550993    ( 0.0000,  0.0000,  0.0000)
  47 Li     5.153165    3.658549   18.545504    ( 0.0000,  0.0000,  0.0000)
  48 Li     3.432862   -0.000289   19.712299    ( 0.0000,  0.0000,  0.0000)
  49 Li     6.873465   -0.000293   19.713054    ( 0.0000,  0.0000,  0.0000)
  50 Li     3.430535    3.658870   19.710248    ( 0.0000,  0.0000,  0.0000)
  51 Li     6.875990    3.658967   19.710295    ( 0.0000,  0.0000,  0.0000)
  52 Li     1.718156    1.827418   20.847261    ( 0.0000,  0.0000,  0.0000)
  53 Li     5.152537    1.823374   20.847112    ( 0.0000,  0.0000,  0.0000)
  54 Li     1.717872    5.489198   20.849313    ( 0.0000,  0.0000,  0.0000)
  55 Li     5.151768    5.500178   20.833759    ( 0.0000,  0.0000,  0.0000)
  56 Li     6.872505   -0.001200   21.838686    ( 0.0000,  0.0000,  0.0000)
  57 Li     3.433997   -0.001093   21.838656    ( 0.0000,  0.0000,  0.0000)
  58 Li     6.928255    3.644745   21.798925    ( 0.0000,  0.0000,  0.0000)
  59 Li     3.396902    3.651727   21.819150    ( 0.0000,  0.0000,  0.0000)
  60 N      1.719355    0.000000    7.667940    ( 0.0000,  0.0000,  0.0000)
  61 N      5.151126    0.000000    7.667940    ( 0.0000,  0.0000,  0.0000)
  62 N      1.719355    3.658360    7.667940    ( 0.0000,  0.0000,  0.0000)
  63 N      5.151126    3.658360    7.667940    ( 0.0000,  0.0000,  0.0000)
  64 N      3.435275    0.000000   10.956225    ( 0.0000,  0.0000,  0.0000)
  65 N      6.870825    0.000000   10.956515    ( 0.0000,  0.0000,  0.0000)
  66 N      3.435275    3.658360   10.956225    ( 0.0000,  0.0000,  0.0000)
  67 N      6.870825    3.658360   10.956515    ( 0.0000,  0.0000,  0.0000)
  68 N      1.719424    0.000000   14.234965    ( 0.0000,  0.0000,  0.0000)
  69 N      5.151195    0.000000   14.234965    ( 0.0000,  0.0000,  0.0000)
  70 N      1.719424    3.658360   14.234965    ( 0.0000,  0.0000,  0.0000)
  71 N      5.151195    3.658360   14.234965    ( 0.0000,  0.0000,  0.0000)
  72 N      3.436134    0.000009   17.497997    ( 0.0000,  0.0000,  0.0000)
  73 N      6.870197    0.000023   17.498011    ( 0.0000,  0.0000,  0.0000)
  74 N      3.437486    3.658415   17.501775    ( 0.0000,  0.0000,  0.0000)
  75 N      6.868893    3.658413   17.501853    ( 0.0000,  0.0000,  0.0000)
  76 N      1.720059    0.001059   20.740841    ( 0.0000,  0.0000,  0.0000)
  77 N      5.150801   -0.000732   20.742014    ( 0.0000,  0.0000,  0.0000)
  78 N      1.719377    3.656854   20.739943    ( 0.0000,  0.0000,  0.0000)
  79 N      5.154712    3.666862   20.796219    ( 0.0000,  0.0000,  0.0000)
  80 Li     5.309078    4.101916   23.049405    ( 0.0000,  0.0000,  0.0000)

Unit cell:
           periodic     x           y           z      points  spacing
  1. axis:    yes    6.871100    0.000000    0.000000    35     0.1963
  2. axis:    yes    0.000000    7.316720    0.000000    36     0.2032
  3. axis:    yes    0.000000    0.000000   28.925800   144     0.2009

  Lengths:   6.871100   7.316720  28.925800
  Angles:   90.000000  90.000000  90.000000

Effective grid spacing dv^(1/3) = 0.2001

                     log10-error:    total        iterations:
           time      wfs    density  energy       fermi  poisson
iter:   1  22:24:28  -3.24         -284.613462    34            
iter:   2  22:24:32  -4.57  -2.98  -284.613150    3             
iter:   3  22:24:37  -4.19  -3.01  -284.611719    4             
iter:   4  22:24:42  -5.89  -3.18  -284.611510    3             
iter:   5  22:24:47  -4.17  -3.21  -284.612295    5             
iter:   6  22:24:51  -4.70  -3.18  -284.610917    4             
iter:   7  22:24:55  -5.59  -3.67  -284.610927    3             
iter:   8  22:25:00  -6.58  -3.86  -284.610919    3             
iter:   9  22:25:04  -7.16  -4.01  -284.610920    3             
iter:  10  22:25:08  -7.17  -4.18  -284.610921    3             
iter:  11  22:25:12  -7.83  -4.38  -284.610920    2             
iter:  12  22:25:18  -7.63  -4.43  -284.610920    3             
iter:  13  22:25:22  -7.75  -4.59  -284.610920    2             
iter:  14  22:25:27  -8.35  -4.79  -284.610920    2             

Converged after 14 iterations.

Dipole moment: (0.403417, -0.072464, -0.811673) |e|*Ang

Energy contributions relative to reference atoms: (reference = -42004.487119)

Kinetic:       +308.962818
Potential:     -213.591158
External:        +0.000000
XC:            -378.121421
Entropy (-ST):   -0.007497
Local:           -1.857410
--------------------------
Free energy:   -284.614669
Extrapolated:  -284.610920

Fermi level: 0.22683

Showing only first 2 kpts
 Kpt  Band  Eigenvalues  Occupancy
  0    78     -0.44081    0.66667
  0    79     -0.27933    0.66667
  0    80      0.09745    0.66667
  0    81      0.94839    0.00000

  1    78     -0.67915    0.66667
  1    79     -0.66322    0.66667
  1    80      0.23805    0.16380
  1    81      0.97995    0.00000


No gap

Forces in eV/Ang:
  0 Li   -0.00011    0.00001   -0.04432
  1 Li   -0.00009    0.00001   -0.04381
  2 Li   -0.00010   -0.00001   -0.04440
  3 Li   -0.00010   -0.00001   -0.04389
  4 Li    0.00075   -0.00011    0.03579
  5 Li   -0.00076   -0.00006    0.03580
  6 Li    0.00075    0.00011    0.03586
  7 Li   -0.00076    0.00007    0.03586
  8 Li   -0.00012   -0.00003   -0.02925
  9 Li   -0.00009   -0.00003   -0.02947
 10 Li   -0.00012    0.00004   -0.02959
 11 Li   -0.00009    0.00004   -0.02981
 12 Li    0.00025   -0.00002   -0.00274
 13 Li   -0.00029   -0.00003   -0.00277
 14 Li    0.00025    0.00003   -0.00337
 15 Li   -0.00029    0.00003   -0.00319
 16 Li    0.00008   -0.00078   -0.04154
 17 Li   -0.00002   -0.00077   -0.04178
 18 Li    0.00008    0.00077   -0.04176
 19 Li   -0.00002    0.00077   -0.04201
 20 Li    0.00061    0.00009   -0.02042
 21 Li   -0.00061    0.00008   -0.02012
 22 Li    0.00060   -0.00015   -0.02316
 23 Li   -0.00061   -0.00015   -0.02259
 24 Li    0.00003    0.00009   -0.00966
 25 Li   -0.00057    0.00010   -0.00828
 26 Li    0.00029   -0.00012   -0.01265
 27 Li   -0.00082   -0.00013   -0.01128
 28 Li    0.00022   -0.00539   -0.01946
 29 Li   -0.00024   -0.00489   -0.01896
 30 Li    0.00025    0.00546   -0.01862
 31 Li   -0.00027    0.00498   -0.01803
 32 Li    0.00204    0.00001   -0.02022
 33 Li   -0.00195    0.00011   -0.02279
 34 Li    0.00446    0.00044   -0.03448
 35 Li   -0.00429    0.00038   -0.03710
 36 Li    0.00062    0.00033   -0.01454
 37 Li   -0.00083    0.00002   -0.02354
 38 Li    0.00072   -0.00020   -0.01392
 39 Li   -0.00065    0.00014   -0.04399
 40 Li   -0.01134   -0.01393    0.00167
 41 Li    0.01108   -0.01386    0.00216
 42 Li   -0.00954    0.01401   -0.00113
 43 Li    0.00934    0.01410   -0.00063
 44 Li    0.00048    0.00298   -0.00358
 45 Li    0.00006   -0.00511   -0.04898
 46 Li    0.00242   -0.00257   -0.03305
 47 Li    0.00188    0.00523   -0.12869
 48 Li   -0.03973   -0.00072   -0.01214
 49 Li    0.03894   -0.00135   -0.00664
 50 Li   -0.03563    0.01658   -0.05402
 51 Li    0.04016    0.02318   -0.10535
 52 Li    0.00766   -0.05864   -0.03392
 53 Li    0.00075   -0.04097    0.01928
 54 Li   -0.00519    0.04011    0.02863
 55 Li   -0.00961    0.18550   -0.27642
 56 Li    0.02570   -0.03141    0.19425
 57 Li   -0.02360   -0.02849    0.18283
 58 Li    1.12337   -0.26989   -0.49063
 59 Li   -0.82649   -0.14335   -0.18794
 60 N     0.00327   -0.00000   -0.00433
 61 N    -0.00276    0.00002   -0.00527
 62 N     0.00326    0.00002   -0.00351
 63 N    -0.00277   -0.00007   -0.00098
 64 N    -0.00014   -0.00009    0.02794
 65 N     0.00042   -0.00010    0.02744
 66 N    -0.00018    0.00017    0.03293
 67 N     0.00033    0.00019    0.03180
 68 N     0.00261    0.00022    0.04031
 69 N    -0.00208    0.00028    0.04064
 70 N     0.00262   -0.00060    0.07245
 71 N    -0.00202   -0.00087    0.06457
 72 N     0.00742   -0.00083   -0.02929
 73 N    -0.00604   -0.00078   -0.02888
 74 N     0.04418    0.00040    0.07556
 75 N    -0.03916    0.00041    0.07630
 76 N     0.00807    0.01235   -0.14914
 77 N    -0.00853    0.03833   -0.16510
 78 N     0.04351   -0.03564   -0.28806
 79 N     0.07206    0.13602    1.14121
 80 Li   -0.41946    0.14995    0.20817

System changes: positions 

Initializing position-dependent things.

Density initialized from wave functions
     .----------------.  
    /|                |  
   / |                |  
  /  |                |  
 *   |                |  
 |   |                |  
 |   |                |  
 |   |                |  
 |   |                |  
 |   Li      Li Li    |  
 |   |            N   |  
 | LiLi Li LiLi  Li   |  
 |   | N        N     |  
 | Li|Li   Li  Li Li  |  
 |   N        N       |  
 |  Li Li   Li  Li    |  
 |   |      N     LiN |  
 |Li Li   Li          |  
 |   | Li       LiN   |  
 |   |  Li Li    Li Li|  
 |   LiN        N     |  
 |   |Li Li    Li Li  |  
 |   N     Li N     Li|  
 |   | Li   Li  Li   Li  
 |   |   LiN      LiN |  
 |   Li   Li  Li   Li |  
 |   | LiN      LiN   |  
 |   |     Li       Li|  
 |   LiNLi    LiNLi   |  
 |   |   Li       Li  |  
 |   NLi   Li NLi   Li|  
 |   |                |  
 |   |   Li       Li  |  
 |   |                |  
 |   |                |  
 |   |                |  
 |   .----------------.  
 |  /                /   
 | /                /    
 |/                /     
 *----------------*      

Positions:
   0 Li     3.435275    0.000000    6.598843    ( 0.0000,  0.0000,  0.0000)
   1 Li     6.870825    0.000000    6.599421    ( 0.0000,  0.0000,  0.0000)
   2 Li     3.435275    3.658360    6.598843    ( 0.0000,  0.0000,  0.0000)
   3 Li     6.870825    3.658360    6.599421    ( 0.0000,  0.0000,  0.0000)
   4 Li     1.718187    1.829180    7.583766    ( 0.0000,  0.0000,  0.0000)
   5 Li     5.152363    1.829180    7.583766    ( 0.0000,  0.0000,  0.0000)
   6 Li     1.718187    5.487540    7.583766    ( 0.0000,  0.0000,  0.0000)
   7 Li     5.152363    5.487540    7.583766    ( 0.0000,  0.0000,  0.0000)
   8 Li     3.435275    0.000000    8.718815    ( 0.0000,  0.0000,  0.0000)
   9 Li     6.870825    0.000000    8.718236    ( 0.0000,  0.0000,  0.0000)
  10 Li     3.435275    3.658360    8.718815    ( 0.0000,  0.0000,  0.0000)
  11 Li     6.870825    3.658360    8.718236    ( 0.0000,  0.0000,  0.0000)
  12 Li     1.717500    0.000000    9.900144    ( 0.0000,  0.0000,  0.0000)
  13 Li     5.153050    0.000000    9.900144    ( 0.0000,  0.0000,  0.0000)
  14 Li     1.717500    3.658360    9.900144    ( 0.0000,  0.0000,  0.0000)
  15 Li     5.153050    3.658360    9.900144    ( 0.0000,  0.0000,  0.0000)
  16 Li     3.435275    1.829180   10.960564    ( 0.0000,  0.0000,  0.0000)
  17 Li     6.870825    1.829180   10.960853    ( 0.0000,  0.0000,  0.0000)
  18 Li     3.435275    5.487540   10.960564    ( 0.0000,  0.0000,  0.0000)
  19 Li     6.870825    5.487540   10.960853    ( 0.0000,  0.0000,  0.0000)
  20 Li     1.717569    0.000000   12.007100    ( 0.0000,  0.0000,  0.0000)
  21 Li     5.153050    0.000000   12.007100    ( 0.0000,  0.0000,  0.0000)
  22 Li     1.717569    3.658360   12.007100    ( 0.0000,  0.0000,  0.0000)
  23 Li     5.153050    3.658360   12.007100    ( 0.0000,  0.0000,  0.0000)
  24 Li     3.435344    0.000000   13.180330    ( 0.0000,  0.0000,  0.0000)
  25 Li     6.870894    0.000000   13.180909    ( 0.0000,  0.0000,  0.0000)
  26 Li     3.435344    3.658360   13.180330    ( 0.0000,  0.0000,  0.0000)
  27 Li     6.870894    3.658360   13.180909    ( 0.0000,  0.0000,  0.0000)
  28 Li     1.718462    1.829180   14.234386    ( 0.0000,  0.0000,  0.0000)
  29 Li     5.152226    1.829180   14.234386    ( 0.0000,  0.0000,  0.0000)
  30 Li     1.718462    5.487540   14.234386    ( 0.0000,  0.0000,  0.0000)
  31 Li     5.152226    5.487540   14.234386    ( 0.0000,  0.0000,  0.0000)
  32 Li     3.435344    0.000000   15.285550    ( 0.0000,  0.0000,  0.0000)
  33 Li     6.870894    0.000000   15.285260    ( 0.0000,  0.0000,  0.0000)
  34 Li     3.435344    3.658360   15.285550    ( 0.0000,  0.0000,  0.0000)
  35 Li     6.870894    3.658360   15.285260    ( 0.0000,  0.0000,  0.0000)
  36 Li     1.717691    0.000039   16.449501    ( 0.0000,  0.0000,  0.0000)
  37 Li     5.153045   -0.000003   16.449119    ( 0.0000,  0.0000,  0.0000)
  38 Li     1.717693    3.658339   16.449333    ( 0.0000,  0.0000,  0.0000)
  39 Li     5.153056    3.658368   16.447907    ( 0.0000,  0.0000,  0.0000)
  40 Li     3.434474    1.828094   17.496916    ( 0.0000,  0.0000,  0.0000)
  41 Li     6.871813    1.828101   17.496662    ( 0.0000,  0.0000,  0.0000)
  42 Li     3.434625    5.488595   17.496813    ( 0.0000,  0.0000,  0.0000)
  43 Li     6.871670    5.488594   17.496555    ( 0.0000,  0.0000,  0.0000)
  44 Li     1.717672    0.000144   18.552176    ( 0.0000,  0.0000,  0.0000)
  45 Li     5.153142   -0.000620   18.547655    ( 0.0000,  0.0000,  0.0000)
  46 Li     1.717662    3.658279   18.550087    ( 0.0000,  0.0000,  0.0000)
  47 Li     5.153214    3.658695   18.541453    ( 0.0000,  0.0000,  0.0000)
  48 Li     3.431481   -0.000378   19.711840    ( 0.0000,  0.0000,  0.0000)
  49 Li     6.874820   -0.000395   19.712742    ( 0.0000,  0.0000,  0.0000)
  50 Li     3.428643    3.659306   19.708498    ( 0.0000,  0.0000,  0.0000)
  51 Li     6.878003    3.659550   19.707457    ( 0.0000,  0.0000,  0.0000)
  52 Li     1.718252    1.825887   20.846606    ( 0.0000,  0.0000,  0.0000)
  53 Li     5.152561    1.821155   20.847390    ( 0.0000,  0.0000,  0.0000)
  54 Li     1.717660    5.490363   20.850330    ( 0.0000,  0.0000,  0.0000)
  55 Li     5.151407    5.506803   20.825191    ( 0.0000,  0.0000,  0.0000)
  56 Li     6.873372   -0.002085   21.844624    ( 0.0000,  0.0000,  0.0000)
  57 Li     3.433201   -0.001897   21.844228    ( 0.0000,  0.0000,  0.0000)
  58 Li     6.963556    3.636310   21.782111    ( 0.0000,  0.0000,  0.0000)
  59 Li     3.371856    3.647396   21.812911    ( 0.0000,  0.0000,  0.0000)
  60 N      1.719355    0.000000    7.667940    ( 0.0000,  0.0000,  0.0000)
  61 N      5.151126    0.000000    7.667940    ( 0.0000,  0.0000,  0.0000)
  62 N      1.719355    3.658360    7.667940    ( 0.0000,  0.0000,  0.0000)
  63 N      5.151126    3.658360    7.667940    ( 0.0000,  0.0000,  0.0000)
  64 N      3.435275    0.000000   10.956225    ( 0.0000,  0.0000,  0.0000)
  65 N      6.870825    0.000000   10.956515    ( 0.0000,  0.0000,  0.0000)
  66 N      3.435275    3.658360   10.956225    ( 0.0000,  0.0000,  0.0000)
  67 N      6.870825    3.658360   10.956515    ( 0.0000,  0.0000,  0.0000)
  68 N      1.719424    0.000000   14.234965    ( 0.0000,  0.0000,  0.0000)
  69 N      5.151195    0.000000   14.234965    ( 0.0000,  0.0000,  0.0000)
  70 N      1.719424    3.658360   14.234965    ( 0.0000,  0.0000,  0.0000)
  71 N      5.151195    3.658360   14.234965    ( 0.0000,  0.0000,  0.0000)
  72 N      3.436467   -0.000008   17.497359    ( 0.0000,  0.0000,  0.0000)
  73 N      6.869897    0.000011   17.497386    ( 0.0000,  0.0000,  0.0000)
  74 N      3.438837    3.658439   17.504020    ( 0.0000,  0.0000,  0.0000)
  75 N      6.867653    3.658436   17.504138    ( 0.0000,  0.0000,  0.0000)
  76 N      1.720351    0.001557   20.736220    ( 0.0000,  0.0000,  0.0000)
  77 N      5.150527   -0.000202   20.737388    ( 0.0000,  0.0000,  0.0000)
  78 N      1.720140    3.655813   20.732550    ( 0.0000,  0.0000,  0.0000)
  79 N      5.156919    3.671517   20.829412    ( 0.0000,  0.0000,  0.0000)
  80 Li     5.295961    4.106703   23.057239    ( 0.0000,  0.0000,  0.0000)

Unit cell:
           periodic     x           y           z      points  spacing
  1. axis:    yes    6.871100    0.000000    0.000000    35     0.1963
  2. axis:    yes    0.000000    7.316720    0.000000    36     0.2032
  3. axis:    yes    0.000000    0.000000   28.925800   144     0.2009

  Lengths:   6.871100   7.316720  28.925800
  Angles:   90.000000  90.000000  90.000000

Effective grid spacing dv^(1/3) = 0.2001

                     log10-error:    total        iterations:
           time      wfs    density  energy       fermi  poisson
iter:   1  22:25:35  -3.21         -284.732382    33            
iter:   2  22:25:39  -4.53  -2.96  -284.732047    4             
iter:   3  22:25:44  -4.14  -2.99  -284.730509    4             
iter:   4  22:25:49  -5.79  -3.14  -284.730274    3             
iter:   5  22:25:53  -4.17  -3.17  -284.730876    5             
iter:   6  22:25:57  -4.65  -3.15  -284.729610    4             
iter:   7  22:26:02  -5.63  -3.65  -284.729626    3             
iter:   8  22:26:06  -6.01  -3.78  -284.729598    4             
iter:   9  22:26:11  -7.08  -3.98  -284.729594    3             
iter:  10  22:26:16  -7.07  -4.14  -284.729596    2             
iter:  11  22:26:21  -8.07  -4.39  -284.729595    3             

Converged after 11 iterations.

Dipole moment: (0.103821, -0.131023, -0.832176) |e|*Ang

Energy contributions relative to reference atoms: (reference = -42004.487119)

Kinetic:       +309.022328
Potential:     -213.725342
External:        +0.000000
XC:            -378.163287
Entropy (-ST):   -0.007497
Local:           -1.859546
--------------------------
Free energy:   -284.733344
Extrapolated:  -284.729595

Fermi level: 0.26659

Showing only first 2 kpts
 Kpt  Band  Eigenvalues  Occupancy
  0    78     -0.44335    0.66667
  0    79     -0.28689    0.66667
  0    80      0.12534    0.66667
  0    81      0.94398    0.00000

  1    78     -0.68651    0.66667
  1    79     -0.67064    0.66667
  1    80      0.27777    0.16434
  1    81      1.01150    0.00000


No gap

Forces in eV/Ang:
  0 Li   -0.00011    0.00002   -0.04463
  1 Li   -0.00009    0.00002   -0.04413
  2 Li   -0.00010   -0.00002   -0.04474
  3 Li   -0.00010   -0.00002   -0.04423
  4 Li    0.00075   -0.00015    0.03601
  5 Li   -0.00076   -0.00005    0.03602
  6 Li    0.00075    0.00014    0.03608
  7 Li   -0.00076    0.00005    0.03608
  8 Li   -0.00013   -0.00002   -0.02949
  9 Li   -0.00008   -0.00002   -0.02971
 10 Li   -0.00013    0.00003   -0.02992
 11 Li   -0.00008    0.00003   -0.03015
 12 Li    0.00025   -0.00001   -0.00313
 13 Li   -0.00029   -0.00002   -0.00325
 14 Li    0.00025    0.00002   -0.00396
 15 Li   -0.00029    0.00002   -0.00372
 16 Li    0.00006   -0.00101   -0.04177
 17 Li    0.00000   -0.00101   -0.04201
 18 Li    0.00006    0.00100   -0.04204
 19 Li   -0.00000    0.00100   -0.04228
 20 Li    0.00061    0.00015   -0.02064
 21 Li   -0.00061    0.00013   -0.02012
 22 Li    0.00061   -0.00020   -0.02421
 23 Li   -0.00061   -0.00020   -0.02328
 24 Li    0.00016    0.00012   -0.00979
 25 Li   -0.00070    0.00014   -0.00842
 26 Li    0.00054   -0.00015   -0.01365
 27 Li   -0.00106   -0.00016   -0.01234
 28 Li    0.00026   -0.00696   -0.01994
 29 Li   -0.00029   -0.00631   -0.01966
 30 Li    0.00029    0.00703   -0.01878
 31 Li   -0.00032    0.00640   -0.01846
 32 Li    0.00170   -0.00032   -0.01947
 33 Li   -0.00162   -0.00021   -0.02194
 34 Li    0.00461    0.00068   -0.03688
 35 Li   -0.00431    0.00063   -0.03940
 36 Li    0.00054   -0.00031   -0.01221
 37 Li   -0.00061   -0.00021   -0.02361
 38 Li    0.00085    0.00029   -0.00743
 39 Li   -0.00041    0.00040   -0.04588
 40 Li   -0.00983   -0.01141    0.00407
 41 Li    0.00958   -0.01163    0.00436
 42 Li   -0.00884    0.01176   -0.00049
 43 Li    0.00859    0.01216   -0.00022
 44 Li    0.00028    0.00324   -0.00803
 45 Li   -0.00002    0.00001   -0.03148
 46 Li    0.00598   -0.00391   -0.03252
 47 Li    0.00115    0.00456   -0.10691
 48 Li   -0.02075    0.00512   -0.00390
 49 Li    0.02023    0.00426    0.00244
 50 Li    0.02831    0.01918   -0.03867
 51 Li   -0.02184    0.02906   -0.10927
 52 Li    0.01678   -0.06562   -0.05971
 53 Li    0.00118    0.03123    0.04375
 54 Li   -0.00089    0.03390    0.01180
 55 Li   -0.00313    0.08854   -0.21839
 56 Li    0.01391   -0.03167    0.15932
 57 Li   -0.01263   -0.02874    0.15140
 58 Li    0.84293   -0.21272   -0.26206
 59 Li   -0.68847   -0.12211   -0.10866
 60 N     0.00328    0.00001   -0.00352
 61 N    -0.00275    0.00003   -0.00508
 62 N     0.00327    0.00001   -0.00264
 63 N    -0.00285   -0.00031    0.00426
 64 N    -0.00014   -0.00011    0.02785
 65 N     0.00041   -0.00012    0.02736
 66 N    -0.00020    0.00021    0.03464
 67 N     0.00028    0.00023    0.03355
 68 N     0.00253    0.00079    0.03642
 69 N    -0.00199    0.00072    0.03827
 70 N     0.00253   -0.00097    0.07783
 71 N    -0.00184   -0.00111    0.06769
 72 N    -0.00402   -0.00311   -0.04459
 73 N     0.00568   -0.00292   -0.04352
 74 N     0.03514    0.00178    0.05885
 75 N    -0.02723    0.00154    0.06240
 76 N     0.00266   -0.00006   -0.11521
 77 N    -0.00527    0.07287   -0.17024
 78 N     0.08828   -0.03287   -0.36274
 79 N     0.06395    0.08271    1.07557
 80 Li   -0.33259    0.11055    0.06762

System changes: positions 

Initializing position-dependent things.

Density initialized from wave functions
     .----------------.  
    /|                |  
   / |                |  
  /  |                |  
 *   |                |  
 |   |                |  
 |   |                |  
 |   |                |  
 |   |                |  
 |   Li      Li Li    |  
 |   |                |  
 | LiLi Li LiLi  Li   |  
 |   | N        N     |  
 | Li|Li   Li  Li Li  |  
 |   N        N       N  
 |  Li Li   Li  Li    |  
 |   |      N     LiN |  
 |Li Li   Li          |  
 |   | Li       Li    |  
 |   |  Li Li    Li Li|  
 |   LiN        N     |  
 |   |Li Li    Li Li  |  
 |   N     Li N     Li|  
 |   | Li   Li  Li   Li  
 |   |   LiN      LiN |  
 |   Li   Li  Li   Li |  
 |   | LiN      LiN   |  
 |   |     Li       Li|  
 |   LiNLi    LiNLi   |  
 |   |   Li       Li  |  
 |   NLi   Li NLi   Li|  
 |   |                |  
 |   |   Li       Li  |  
 |   |                |  
 |   |                |  
 |   |                |  
 |   .----------------.  
 |  /                /   
 | /                /    
 |/                /     
 *----------------*      

Positions:
   0 Li     3.435275    0.000000    6.598843    ( 0.0000,  0.0000,  0.0000)
   1 Li     6.870825    0.000000    6.599421    ( 0.0000,  0.0000,  0.0000)
   2 Li     3.435275    3.658360    6.598843    ( 0.0000,  0.0000,  0.0000)
   3 Li     6.870825    3.658360    6.599421    ( 0.0000,  0.0000,  0.0000)
   4 Li     1.718187    1.829180    7.583766    ( 0.0000,  0.0000,  0.0000)
   5 Li     5.152363    1.829180    7.583766    ( 0.0000,  0.0000,  0.0000)
   6 Li     1.718187    5.487540    7.583766    ( 0.0000,  0.0000,  0.0000)
   7 Li     5.152363    5.487540    7.583766    ( 0.0000,  0.0000,  0.0000)
   8 Li     3.435275    0.000000    8.718815    ( 0.0000,  0.0000,  0.0000)
   9 Li     6.870825    0.000000    8.718236    ( 0.0000,  0.0000,  0.0000)
  10 Li     3.435275    3.658360    8.718815    ( 0.0000,  0.0000,  0.0000)
  11 Li     6.870825    3.658360    8.718236    ( 0.0000,  0.0000,  0.0000)
  12 Li     1.717500    0.000000    9.900144    ( 0.0000,  0.0000,  0.0000)
  13 Li     5.153050    0.000000    9.900144    ( 0.0000,  0.0000,  0.0000)
  14 Li     1.717500    3.658360    9.900144    ( 0.0000,  0.0000,  0.0000)
  15 Li     5.153050    3.658360    9.900144    ( 0.0000,  0.0000,  0.0000)
  16 Li     3.435275    1.829180   10.960564    ( 0.0000,  0.0000,  0.0000)
  17 Li     6.870825    1.829180   10.960853    ( 0.0000,  0.0000,  0.0000)
  18 Li     3.435275    5.487540   10.960564    ( 0.0000,  0.0000,  0.0000)
  19 Li     6.870825    5.487540   10.960853    ( 0.0000,  0.0000,  0.0000)
  20 Li     1.717569    0.000000   12.007100    ( 0.0000,  0.0000,  0.0000)
  21 Li     5.153050    0.000000   12.007100    ( 0.0000,  0.0000,  0.0000)
  22 Li     1.717569    3.658360   12.007100    ( 0.0000,  0.0000,  0.0000)
  23 Li     5.153050    3.658360   12.007100    ( 0.0000,  0.0000,  0.0000)
  24 Li     3.435344    0.000000   13.180330    ( 0.0000,  0.0000,  0.0000)
  25 Li     6.870894    0.000000   13.180909    ( 0.0000,  0.0000,  0.0000)
  26 Li     3.435344    3.658360   13.180330    ( 0.0000,  0.0000,  0.0000)
  27 Li     6.870894    3.658360   13.180909    ( 0.0000,  0.0000,  0.0000)
  28 Li     1.718462    1.829180   14.234386    ( 0.0000,  0.0000,  0.0000)
  29 Li     5.152226    1.829180   14.234386    ( 0.0000,  0.0000,  0.0000)
  30 Li     1.718462    5.487540   14.234386    ( 0.0000,  0.0000,  0.0000)
  31 Li     5.152226    5.487540   14.234386    ( 0.0000,  0.0000,  0.0000)
  32 Li     3.435344    0.000000   15.285550    ( 0.0000,  0.0000,  0.0000)
  33 Li     6.870894    0.000000   15.285260    ( 0.0000,  0.0000,  0.0000)
  34 Li     3.435344    3.658360   15.285550    ( 0.0000,  0.0000,  0.0000)
  35 Li     6.870894    3.658360   15.285260    ( 0.0000,  0.0000,  0.0000)
  36 Li     1.717712    0.000042   16.449020    ( 0.0000,  0.0000,  0.0000)
  37 Li     5.153017   -0.000008   16.448352    ( 0.0000,  0.0000,  0.0000)
  38 Li     1.717720    3.658339   16.448894    ( 0.0000,  0.0000,  0.0000)
  39 Li     5.153034    3.658377   16.446477    ( 0.0000,  0.0000,  0.0000)
  40 Li     3.434105    1.827647   17.496983    ( 0.0000,  0.0000,  0.0000)
  41 Li     6.872174    1.827653   17.496743    ( 0.0000,  0.0000,  0.0000)
  42 Li     3.434307    5.489040   17.496778    ( 0.0000,  0.0000,  0.0000)
  43 Li     6.871981    5.489047   17.496533    ( 0.0000,  0.0000,  0.0000)
  44 Li     1.717685    0.000233   18.552047    ( 0.0000,  0.0000,  0.0000)
  45 Li     5.153148   -0.000764   18.546080    ( 0.0000,  0.0000,  0.0000)
  46 Li     1.717769    3.658194   18.549052    ( 0.0000,  0.0000,  0.0000)
  47 Li     5.153256    3.658852   18.537154    ( 0.0000,  0.0000,  0.0000)
  48 Li     3.430217   -0.000377   19.711455    ( 0.0000,  0.0000,  0.0000)
  49 Li     6.876057   -0.000414   19.712541    ( 0.0000,  0.0000,  0.0000)
  50 Li     3.427575    3.659855   19.706745    ( 0.0000,  0.0000,  0.0000)
  51 Li     6.879246    3.660324   19.704112    ( 0.0000,  0.0000,  0.0000)
  52 Li     1.718523    1.823998   20.845397    ( 0.0000,  0.0000,  0.0000)
  53 Li     5.152596    1.819851   20.848140    ( 0.0000,  0.0000,  0.0000)
  54 Li     1.717491    5.491598   20.851209    ( 0.0000,  0.0000,  0.0000)
  55 Li     5.151103    5.512761   20.816313    ( 0.0000,  0.0000,  0.0000)
  56 Li     6.874167   -0.003112   21.850870    ( 0.0000,  0.0000,  0.0000)
  57 Li     3.432474   -0.002829   21.850113    ( 0.0000,  0.0000,  0.0000)
  58 Li     6.999415    3.627567   21.766693    ( 0.0000,  0.0000,  0.0000)
  59 Li     3.345349    3.642767   21.807096    ( 0.0000,  0.0000,  0.0000)
  60 N      1.719355    0.000000    7.667940    ( 0.0000,  0.0000,  0.0000)
  61 N      5.151126    0.000000    7.667940    ( 0.0000,  0.0000,  0.0000)
  62 N      1.719355    3.658360    7.667940    ( 0.0000,  0.0000,  0.0000)
  63 N      5.151126    3.658360    7.667940    ( 0.0000,  0.0000,  0.0000)
  64 N      3.435275    0.000000   10.956225    ( 0.0000,  0.0000,  0.0000)
  65 N      6.870825    0.000000   10.956515    ( 0.0000,  0.0000,  0.0000)
  66 N      3.435275    3.658360   10.956225    ( 0.0000,  0.0000,  0.0000)
  67 N      6.870825    3.658360   10.956515    ( 0.0000,  0.0000,  0.0000)
  68 N      1.719424    0.000000   14.234965    ( 0.0000,  0.0000,  0.0000)
  69 N      5.151195    0.000000   14.234965    ( 0.0000,  0.0000,  0.0000)
  70 N      1.719424    3.658360   14.234965    ( 0.0000,  0.0000,  0.0000)
  71 N      5.151195    3.658360   14.234965    ( 0.0000,  0.0000,  0.0000)
  72 N      3.436653   -0.000066   17.496355    ( 0.0000,  0.0000,  0.0000)
  73 N      6.869753   -0.000038   17.496408    ( 0.0000,  0.0000,  0.0000)
  74 N      3.440242    3.658490   17.506325    ( 0.0000,  0.0000,  0.0000)
  75 N      6.866427    3.658481   17.506537    ( 0.0000,  0.0000,  0.0000)
  76 N      1.720595    0.001915   20.731477    ( 0.0000,  0.0000,  0.0000)
  77 N      5.150267    0.001012   20.731960    ( 0.0000,  0.0000,  0.0000)
  78 N      1.721807    3.654660   20.722703    ( 0.0000,  0.0000,  0.0000)
  79 N      5.159325    3.675966   20.866619    ( 0.0000,  0.0000,  0.0000)
  80 Li     5.282328    4.111541   23.063828    ( 0.0000,  0.0000,  0.0000)

Unit cell:
           periodic     x           y           z      points  spacing
  1. axis:    yes    6.871100    0.000000    0.000000    35     0.1963
  2. axis:    yes    0.000000    7.316720    0.000000    36     0.2032
  3. axis:    yes    0.000000    0.000000   28.925800   144     0.2009

  Lengths:   6.871100   7.316720  28.925800
  Angles:   90.000000  90.000000  90.000000

Effective grid spacing dv^(1/3) = 0.2001

                     log10-error:    total        iterations:
           time      wfs    density  energy       fermi  poisson
iter:   1  22:26:28  -3.16         -284.832927    33            
iter:   2  22:26:33  -4.47  -2.93  -284.832547    4             
iter:   3  22:26:37  -4.11  -2.96  -284.830842    5             
iter:   4  22:26:42  -5.68  -3.10  -284.830582    4             
iter:   5  22:26:47  -4.20  -3.13  -284.830919    7             
iter:   6  22:26:51  -4.70  -3.14  -284.829806    4             
iter:   7  22:26:55  -5.72  -3.61  -284.829804    3             
iter:   8  22:26:59  -5.80  -3.74  -284.829773    4             
iter:   9  22:27:03  -6.50  -3.93  -284.829766    3             
iter:  10  22:27:08  -7.08  -4.14  -284.829766    3             
iter:  11  22:27:13  -8.20  -4.33  -284.829766    2             

Converged after 11 iterations.

Dipole moment: (-0.179370, -0.225335, -0.852338) |e|*Ang

Energy contributions relative to reference atoms: (reference = -42004.487119)

Kinetic:       +309.118196
Potential:     -213.872151
External:        +0.000000
XC:            -378.207517
Entropy (-ST):   -0.007498
Local:           -1.864545
--------------------------
Free energy:   -284.833515
Extrapolated:  -284.829766

Fermi level: 0.30507

Showing only first 2 kpts
 Kpt  Band  Eigenvalues  Occupancy
  0    78     -0.44524    0.66667
  0    79     -0.29434    0.66667
  0    80      0.15182    0.66667
  0    81      0.93959    0.00000

  1    78     -0.69383    0.66667
  1    79     -0.67798    0.66667
  1    80      0.31621    0.16475
  1    81      1.04445    0.00000


No gap

Forces in eV/Ang:
  0 Li   -0.00011    0.00002   -0.04505
  1 Li   -0.00009    0.00002   -0.04453
  2 Li   -0.00010   -0.00001   -0.04518
  3 Li   -0.00010   -0.00001   -0.04467
  4 Li    0.00075   -0.00018    0.03592
  5 Li   -0.00076   -0.00005    0.03592
  6 Li    0.00075    0.00018    0.03600
  7 Li   -0.00076    0.00006    0.03600
  8 Li   -0.00013   -0.00003   -0.02978
  9 Li   -0.00007   -0.00003   -0.03000
 10 Li   -0.00014    0.00004   -0.03032
 11 Li   -0.00007    0.00004   -0.03054
 12 Li    0.00025   -0.00003   -0.00352
 13 Li   -0.00030   -0.00003   -0.00370
 14 Li    0.00025    0.00003   -0.00458
 15 Li   -0.00029    0.00003   -0.00425
 16 Li    0.00007   -0.00127   -0.04221
 17 Li   -0.00001   -0.00127   -0.04245
 18 Li    0.00007    0.00126   -0.04251
 19 Li   -0.00001    0.00126   -0.04276
 20 Li    0.00061    0.00018   -0.02077
 21 Li   -0.00061    0.00016   -0.02014
 22 Li    0.00061   -0.00022   -0.02527
 23 Li   -0.00061   -0.00022   -0.02406
 24 Li    0.00026    0.00016   -0.00979
 25 Li   -0.00079    0.00017   -0.00843
 26 Li    0.00076   -0.00017   -0.01464
 27 Li   -0.00129   -0.00018   -0.01337
 28 Li    0.00030   -0.00872   -0.02044
 29 Li   -0.00034   -0.00796   -0.02034
 30 Li    0.00032    0.00878   -0.01907
 31 Li   -0.00036    0.00803   -0.01898
 32 Li    0.00123   -0.00056   -0.01861
 33 Li   -0.00115   -0.00046   -0.02100
 34 Li    0.00464    0.00084   -0.03951
 35 Li   -0.00415    0.00079   -0.04204
 36 Li    0.00046   -0.00081   -0.01099
 37 Li   -0.00038   -0.00034   -0.02340
 38 Li    0.00104    0.00064   -0.00130
 39 Li   -0.00011    0.00052   -0.04723
 40 Li   -0.00807   -0.00881    0.00644
 41 Li    0.00785   -0.00941    0.00631
 42 Li   -0.00798    0.00927    0.00010
 43 Li    0.00771    0.01007   -0.00024
 44 Li    0.00016    0.00313   -0.01245
 45 Li   -0.00015    0.00601   -0.01579
 46 Li    0.01074   -0.00550   -0.02887
 47 Li   -0.00052    0.00280   -0.09549
 48 Li   -0.00299    0.01141    0.00368
 49 Li    0.00267    0.01062    0.01039
 50 Li    0.08549    0.02148   -0.02527
 51 Li   -0.07444    0.03451   -0.10642
 52 Li    0.02621   -0.07026   -0.08820
 53 Li    0.00139    0.09363    0.07011
 54 Li    0.00344    0.02496   -0.00669
 55 Li    0.00210    0.00190   -0.16025
 56 Li    0.00227   -0.03140    0.12325
 57 Li   -0.00174   -0.02881    0.11865
 58 Li    0.55983   -0.15995   -0.03859
 59 Li   -0.54081   -0.10079   -0.02428
 60 N     0.00328    0.00002   -0.00237
 61 N    -0.00274    0.00007   -0.00450
 62 N     0.00327   -0.00005   -0.00169
 63 N    -0.00297   -0.00056    0.00849
 64 N    -0.00016   -0.00012    0.02850
 65 N     0.00041   -0.00012    0.02801
 66 N    -0.00018    0.00025    0.03710
 67 N     0.00021    0.00026    0.03607
 68 N     0.00253    0.00106    0.03341
 69 N    -0.00194    0.00092    0.03563
 70 N     0.00245   -0.00102    0.08527
 71 N    -0.00160   -0.00110    0.07342
 72 N    -0.01238   -0.00339   -0.05756
 73 N     0.01393   -0.00343   -0.05638
 74 N     0.03074    0.00171    0.04689
 75 N    -0.02026    0.00177    0.05102
 76 N    -0.00237   -0.01230   -0.07954
 77 N    -0.00272    0.09701   -0.16879
 78 N     0.13085   -0.02930   -0.43542
 79 N     0.05596    0.04039    0.94382
 80 Li   -0.25609    0.07321   -0.06145

System changes: positions 

Initializing position-dependent things.

Density initialized from wave functions
     .----------------.  
    /|                |  
   / |                |  
  /  |                |  
 *   |                |  
 |   |                |  
 |   |                |  
 |   |                |  
 |   |                |  
 |   Li      Li Li    |  
 |   |                |  
 | LiLi Li LiLi  Li   |  
 |   | N        N     |  
 | Li|Li   Li  Li Li  |  
 |   N        N       N  
 |  Li Li   Li  Li    |  
 |   |      N     LiN |  
 |Li Li   Li          |  
 |   | Li       Li    |  
 |   |  Li Li    Li Li|  
 |   LiN        N     |  
 |   |Li Li    Li Li  |  
 |   N     Li N     Li|  
 |   | Li   Li  Li   Li  
 |   |   LiN      LiN |  
 |   Li   Li  Li   Li |  
 |   | LiN      LiN   |  
 |   |     Li       Li|  
 |   LiNLi    LiNLi   |  
 |   |   Li       Li  |  
 |   NLi   Li NLi   Li|  
 |   |                |  
 |   |   Li       Li  |  
 |   |                |  
 |   |                |  
 |   |                |  
 |   .----------------.  
 |  /                /   
 | /                /    
 |/                /     
 *----------------*      

Positions:
   0 Li     3.435275    0.000000    6.598843    ( 0.0000,  0.0000,  0.0000)
   1 Li     6.870825    0.000000    6.599421    ( 0.0000,  0.0000,  0.0000)
   2 Li     3.435275    3.658360    6.598843    ( 0.0000,  0.0000,  0.0000)
   3 Li     6.870825    3.658360    6.599421    ( 0.0000,  0.0000,  0.0000)
   4 Li     1.718187    1.829180    7.583766    ( 0.0000,  0.0000,  0.0000)
   5 Li     5.152363    1.829180    7.583766    ( 0.0000,  0.0000,  0.0000)
   6 Li     1.718187    5.487540    7.583766    ( 0.0000,  0.0000,  0.0000)
   7 Li     5.152363    5.487540    7.583766    ( 0.0000,  0.0000,  0.0000)
   8 Li     3.435275    0.000000    8.718815    ( 0.0000,  0.0000,  0.0000)
   9 Li     6.870825    0.000000    8.718236    ( 0.0000,  0.0000,  0.0000)
  10 Li     3.435275    3.658360    8.718815    ( 0.0000,  0.0000,  0.0000)
  11 Li     6.870825    3.658360    8.718236    ( 0.0000,  0.0000,  0.0000)
  12 Li     1.717500    0.000000    9.900144    ( 0.0000,  0.0000,  0.0000)
  13 Li     5.153050    0.000000    9.900144    ( 0.0000,  0.0000,  0.0000)
  14 Li     1.717500    3.658360    9.900144    ( 0.0000,  0.0000,  0.0000)
  15 Li     5.153050    3.658360    9.900144    ( 0.0000,  0.0000,  0.0000)
  16 Li     3.435275    1.829180   10.960564    ( 0.0000,  0.0000,  0.0000)
  17 Li     6.870825    1.829180   10.960853    ( 0.0000,  0.0000,  0.0000)
  18 Li     3.435275    5.487540   10.960564    ( 0.0000,  0.0000,  0.0000)
  19 Li     6.870825    5.487540   10.960853    ( 0.0000,  0.0000,  0.0000)
  20 Li     1.717569    0.000000   12.007100    ( 0.0000,  0.0000,  0.0000)
  21 Li     5.153050    0.000000   12.007100    ( 0.0000,  0.0000,  0.0000)
  22 Li     1.717569    3.658360   12.007100    ( 0.0000,  0.0000,  0.0000)
  23 Li     5.153050    3.658360   12.007100    ( 0.0000,  0.0000,  0.0000)
  24 Li     3.435344    0.000000   13.180330    ( 0.0000,  0.0000,  0.0000)
  25 Li     6.870894    0.000000   13.180909    ( 0.0000,  0.0000,  0.0000)
  26 Li     3.435344    3.658360   13.180330    ( 0.0000,  0.0000,  0.0000)
  27 Li     6.870894    3.658360   13.180909    ( 0.0000,  0.0000,  0.0000)
  28 Li     1.718462    1.829180   14.234386    ( 0.0000,  0.0000,  0.0000)
  29 Li     5.152226    1.829180   14.234386    ( 0.0000,  0.0000,  0.0000)
  30 Li     1.718462    5.487540   14.234386    ( 0.0000,  0.0000,  0.0000)
  31 Li     5.152226    5.487540   14.234386    ( 0.0000,  0.0000,  0.0000)
  32 Li     3.435344    0.000000   15.285550    ( 0.0000,  0.0000,  0.0000)
  33 Li     6.870894    0.000000   15.285260    ( 0.0000,  0.0000,  0.0000)
  34 Li     3.435344    3.658360   15.285550    ( 0.0000,  0.0000,  0.0000)
  35 Li     6.870894    3.658360   15.285260    ( 0.0000,  0.0000,  0.0000)
  36 Li     1.717735    0.000036   16.448500    ( 0.0000,  0.0000,  0.0000)
  37 Li     5.152990   -0.000016   16.447487    ( 0.0000,  0.0000,  0.0000)
  38 Li     1.717754    3.658347   16.448518    ( 0.0000,  0.0000,  0.0000)
  39 Li     5.153016    3.658389   16.444829    ( 0.0000,  0.0000,  0.0000)
  40 Li     3.433720    1.827191   17.497106    ( 0.0000,  0.0000,  0.0000)
  41 Li     6.872550    1.827188   17.496873    ( 0.0000,  0.0000,  0.0000)
  42 Li     3.433963    5.489497   17.496750    ( 0.0000,  0.0000,  0.0000)
  43 Li     6.872317    5.489519   17.496508    ( 0.0000,  0.0000,  0.0000)
  44 Li     1.717697    0.000332   18.551813    ( 0.0000,  0.0000,  0.0000)
  45 Li     5.153151   -0.000811   18.544607    ( 0.0000,  0.0000,  0.0000)
  46 Li     1.717982    3.658066   18.547945    ( 0.0000,  0.0000,  0.0000)
  47 Li     5.153273    3.658996   18.532525    ( 0.0000,  0.0000,  0.0000)
  48 Li     3.429137   -0.000254   19.711168    ( 0.0000,  0.0000,  0.0000)
  49 Li     6.877111   -0.000311   19.712471    ( 0.0000,  0.0000,  0.0000)
  50 Li     3.427498    3.660522   19.705024    ( 0.0000,  0.0000,  0.0000)
  51 Li     6.879605    3.661310   19.700366    ( 0.0000,  0.0000,  0.0000)
  52 Li     1.719016    1.821762   20.843471    ( 0.0000,  0.0000,  0.0000)
  53 Li     5.152640    1.819614   20.849503    ( 0.0000,  0.0000,  0.0000)
  54 Li     1.717385    5.492828   20.851844    ( 0.0000,  0.0000,  0.0000)
  55 Li     5.150862    5.517792   20.807395    ( 0.0000,  0.0000,  0.0000)
  56 Li     6.874839   -0.004270   21.857238    ( 0.0000,  0.0000,  0.0000)
  57 Li     3.431863   -0.003887   21.856138    ( 0.0000,  0.0000,  0.0000)
  58 Li     7.034484    3.618707   21.753621    ( 0.0000,  0.0000,  0.0000)
  59 Li     3.318201    3.637940   21.802156    ( 0.0000,  0.0000,  0.0000)
  60 N      1.719355    0.000000    7.667940    ( 0.0000,  0.0000,  0.0000)
  61 N      5.151126    0.000000    7.667940    ( 0.0000,  0.0000,  0.0000)
  62 N      1.719355    3.658360    7.667940    ( 0.0000,  0.0000,  0.0000)
  63 N      5.151126    3.658360    7.667940    ( 0.0000,  0.0000,  0.0000)
  64 N      3.435275    0.000000   10.956225    ( 0.0000,  0.0000,  0.0000)
  65 N      6.870825    0.000000   10.956515    ( 0.0000,  0.0000,  0.0000)
  66 N      3.435275    3.658360   10.956225    ( 0.0000,  0.0000,  0.0000)
  67 N      6.870825    3.658360   10.956515    ( 0.0000,  0.0000,  0.0000)
  68 N      1.719424    0.000000   14.234965    ( 0.0000,  0.0000,  0.0000)
  69 N      5.151195    0.000000   14.234965    ( 0.0000,  0.0000,  0.0000)
  70 N      1.719424    3.658360   14.234965    ( 0.0000,  0.0000,  0.0000)
  71 N      5.151195    3.658360   14.234965    ( 0.0000,  0.0000,  0.0000)
  72 N      3.436698   -0.000139   17.494961    ( 0.0000,  0.0000,  0.0000)
  73 N      6.869755   -0.000106   17.495045    ( 0.0000,  0.0000,  0.0000)
  74 N      3.441744    3.658547   17.508703    ( 0.0000,  0.0000,  0.0000)
  75 N      6.865179    3.658537   17.509031    ( 0.0000,  0.0000,  0.0000)
  76 N      1.720771    0.002079   20.726801    ( 0.0000,  0.0000,  0.0000)
  77 N      5.150023    0.002878   20.725834    ( 0.0000,  0.0000,  0.0000)
  78 N      1.724534    3.653422   20.710120    ( 0.0000,  0.0000,  0.0000)
  79 N      5.161892    3.680159   20.906316    ( 0.0000,  0.0000,  0.0000)
  80 Li     5.268402    4.116285   23.068735    ( 0.0000,  0.0000,  0.0000)

Unit cell:
           periodic     x           y           z      points  spacing
  1. axis:    yes    6.871100    0.000000    0.000000    35     0.1963
  2. axis:    yes    0.000000    7.316720    0.000000    36     0.2032
  3. axis:    yes    0.000000    0.000000   28.925800   144     0.2009

  Lengths:   6.871100   7.316720  28.925800
  Angles:   90.000000  90.000000  90.000000

Effective grid spacing dv^(1/3) = 0.2001

                     log10-error:    total        iterations:
           time      wfs    density  energy       fermi  poisson
iter:   1  22:27:21  -3.15         -284.910646    29            
iter:   2  22:27:25  -4.45  -2.91  -284.910229    4             
iter:   3  22:27:29  -4.12  -2.95  -284.908402    6             
iter:   4  22:27:33  -5.62  -3.08  -284.908155    3             
iter:   5  22:27:37  -4.28  -3.11  -284.908128    31            
iter:   6  22:27:42  -4.82  -3.16  -284.907330    4             
iter:   7  22:27:46  -5.90  -3.58  -284.907296    4             
iter:   8  22:27:51  -5.72  -3.73  -284.907273    4             
iter:   9  22:27:56  -5.97  -3.88  -284.907274    4             
iter:  10  22:28:00  -6.39  -3.95  -284.907261    4             
iter:  11  22:28:05  -7.77  -4.24  -284.907260    3             
iter:  12  22:28:09  -7.96  -4.32  -284.907259    3             
iter:  13  22:28:14  -7.64  -4.41  -284.907259    3             
iter:  14  22:28:20  -8.33  -4.62  -284.907259    3             

Converged after 14 iterations.

Dipole moment: (-0.421287, -0.353759, -0.869788) |e|*Ang

Energy contributions relative to reference atoms: (reference = -42004.487119)

Kinetic:       +309.233617
Potential:     -214.020677
External:        +0.000000
XC:            -378.248439
Entropy (-ST):   -0.007498
Local:           -1.868011
--------------------------
Free energy:   -284.911008
Extrapolated:  -284.907259

Fermi level: 0.33953

Showing only first 2 kpts
 Kpt  Band  Eigenvalues  Occupancy
  0    78     -0.44573    0.66667
  0    79     -0.30054    0.66667
  0    80      0.17484    0.66667
  0    81      0.93565    0.00000

  1    78     -0.69993    0.66667
  1    79     -0.68416    0.66667
  1    80      0.35065    0.16502
  1    81      1.07599    0.00000


No gap

Forces in eV/Ang:
  0 Li   -0.00011    0.00002   -0.04540
  1 Li   -0.00009    0.00002   -0.04489
  2 Li   -0.00009   -0.00001   -0.04554
  3 Li   -0.00011   -0.00001   -0.04503
  4 Li    0.00075   -0.00022    0.03577
  5 Li   -0.00076   -0.00009    0.03577
  6 Li    0.00075    0.00021    0.03586
  7 Li   -0.00076    0.00009    0.03586
  8 Li   -0.00013   -0.00005   -0.03008
  9 Li   -0.00007   -0.00005   -0.03030
 10 Li   -0.00013    0.00006   -0.03074
 11 Li   -0.00008    0.00006   -0.03097
 12 Li    0.00025   -0.00005   -0.00377
 13 Li   -0.00030   -0.00005   -0.00396
 14 Li    0.00025    0.00005   -0.00507
 15 Li   -0.00029    0.00005   -0.00469
 16 Li    0.00011   -0.00156   -0.04240
 17 Li   -0.00005   -0.00156   -0.04264
 18 Li    0.00011    0.00156   -0.04274
 19 Li   -0.00005    0.00155   -0.04298
 20 Li    0.00061    0.00021   -0.02065
 21 Li   -0.00061    0.00019   -0.01998
 22 Li    0.00060   -0.00023   -0.02618
 23 Li   -0.00059   -0.00023   -0.02478
 24 Li    0.00032    0.00020   -0.00978
 25 Li   -0.00086    0.00020   -0.00841
 26 Li    0.00097   -0.00021   -0.01567
[...]
   2 Li     3.435275    3.658360    6.598843    ( 0.0000,  0.0000,  0.0000)
   3 Li     6.870825    3.658360    6.599421    ( 0.0000,  0.0000,  0.0000)
   4 Li     1.718187    1.829180    7.583766    ( 0.0000,  0.0000,  0.0000)
   5 Li     5.152363    1.829180    7.583766    ( 0.0000,  0.0000,  0.0000)
   6 Li     1.718187    5.487540    7.583766    ( 0.0000,  0.0000,  0.0000)
   7 Li     5.152363    5.487540    7.583766    ( 0.0000,  0.0000,  0.0000)
   8 Li     3.435275    0.000000    8.718815    ( 0.0000,  0.0000,  0.0000)
   9 Li     6.870825    0.000000    8.718236    ( 0.0000,  0.0000,  0.0000)
  10 Li     3.435275    3.658360    8.718815    ( 0.0000,  0.0000,  0.0000)
  11 Li     6.870825    3.658360    8.718236    ( 0.0000,  0.0000,  0.0000)
  12 Li     1.717500    0.000000    9.900144    ( 0.0000,  0.0000,  0.0000)
  13 Li     5.153050    0.000000    9.900144    ( 0.0000,  0.0000,  0.0000)
  14 Li     1.717500    3.658360    9.900144    ( 0.0000,  0.0000,  0.0000)
  15 Li     5.153050    3.658360    9.900144    ( 0.0000,  0.0000,  0.0000)
  16 Li     3.435275    1.829180   10.960564    ( 0.0000,  0.0000,  0.0000)
  17 Li     6.870825    1.829180   10.960853    ( 0.0000,  0.0000,  0.0000)
  18 Li     3.435275    5.487540   10.960564    ( 0.0000,  0.0000,  0.0000)
  19 Li     6.870825    5.487540   10.960853    ( 0.0000,  0.0000,  0.0000)
  20 Li     1.717569    0.000000   12.007100    ( 0.0000,  0.0000,  0.0000)
  21 Li     5.153050    0.000000   12.007100    ( 0.0000,  0.0000,  0.0000)
  22 Li     1.717569    3.658360   12.007100    ( 0.0000,  0.0000,  0.0000)
  23 Li     5.153050    3.658360   12.007100    ( 0.0000,  0.0000,  0.0000)
  24 Li     3.435344    0.000000   13.180330    ( 0.0000,  0.0000,  0.0000)
  25 Li     6.870894    0.000000   13.180909    ( 0.0000,  0.0000,  0.0000)
  26 Li     3.435344    3.658360   13.180330    ( 0.0000,  0.0000,  0.0000)
  27 Li     6.870894    3.658360   13.180909    ( 0.0000,  0.0000,  0.0000)
  28 Li     1.718462    1.829180   14.234386    ( 0.0000,  0.0000,  0.0000)
  29 Li     5.152226    1.829180   14.234386    ( 0.0000,  0.0000,  0.0000)
  30 Li     1.718462    5.487540   14.234386    ( 0.0000,  0.0000,  0.0000)
  31 Li     5.152226    5.487540   14.234386    ( 0.0000,  0.0000,  0.0000)
  32 Li     3.435344    0.000000   15.285550    ( 0.0000,  0.0000,  0.0000)
  33 Li     6.870894    0.000000   15.285260    ( 0.0000,  0.0000,  0.0000)
  34 Li     3.435344    3.658360   15.285550    ( 0.0000,  0.0000,  0.0000)
  35 Li     6.870894    3.658360   15.285260    ( 0.0000,  0.0000,  0.0000)
  36 Li     1.721314   -0.028079   16.439156    ( 0.0000,  0.0000,  0.0000)
  37 Li     5.155262    0.040584   16.422655    ( 0.0000,  0.0000,  0.0000)
  38 Li     1.716152    3.742518   16.499426    ( 0.0000,  0.0000,  0.0000)
  39 Li     5.151930    3.688581   16.391095    ( 0.0000,  0.0000,  0.0000)
  40 Li     3.340844    1.821524   17.501155    ( 0.0000,  0.0000,  0.0000)
  41 Li     6.963778    1.821052   17.491559    ( 0.0000,  0.0000,  0.0000)
  42 Li     3.515414    5.485120   17.535304    ( 0.0000,  0.0000,  0.0000)
  43 Li     6.790148    5.484459   17.542753    ( 0.0000,  0.0000,  0.0000)
  44 Li     1.722068   -0.157262   18.539009    ( 0.0000,  0.0000,  0.0000)
  45 Li     5.158907    0.041273   18.526610    ( 0.0000,  0.0000,  0.0000)
  46 Li     1.720201    3.665886   18.633747    ( 0.0000,  0.0000,  0.0000)
  47 Li     5.152298    3.435983   18.413085    ( 0.0000,  0.0000,  0.0000)
  48 Li     3.450147    0.072352   19.700343    ( 0.0000,  0.0000,  0.0000)
  49 Li     6.866184    0.074420   19.704910    ( 0.0000,  0.0000,  0.0000)
  50 Li     3.515560    3.700651   19.890678    ( 0.0000,  0.0000,  0.0000)
  51 Li     6.794205    3.684147   19.892557    ( 0.0000,  0.0000,  0.0000)
  52 Li     1.725383    1.772113   20.679945    ( 0.0000,  0.0000,  0.0000)
  53 Li     5.151589    1.833765   21.219414    ( 0.0000,  0.0000,  0.0000)
  54 Li     1.717183    5.442743   20.851484    ( 0.0000,  0.0000,  0.0000)
  55 Li     5.158324    5.526406   20.945597    ( 0.0000,  0.0000,  0.0000)
  56 Li     6.916475   -0.059532   21.860508    ( 0.0000,  0.0000,  0.0000)
  57 Li     3.396404   -0.063223   21.860089    ( 0.0000,  0.0000,  0.0000)
  58 Li     7.175460    3.540550   22.045166    ( 0.0000,  0.0000,  0.0000)
  59 Li     3.144028    3.541232   22.047101    ( 0.0000,  0.0000,  0.0000)
  60 N      1.719355    0.000000    7.667940    ( 0.0000,  0.0000,  0.0000)
  61 N      5.151126    0.000000    7.667940    ( 0.0000,  0.0000,  0.0000)
  62 N      1.719355    3.658360    7.667940    ( 0.0000,  0.0000,  0.0000)
  63 N      5.151126    3.658360    7.667940    ( 0.0000,  0.0000,  0.0000)
  64 N      3.435275    0.000000   10.956225    ( 0.0000,  0.0000,  0.0000)
  65 N      6.870825    0.000000   10.956515    ( 0.0000,  0.0000,  0.0000)
  66 N      3.435275    3.658360   10.956225    ( 0.0000,  0.0000,  0.0000)
  67 N      6.870825    3.658360   10.956515    ( 0.0000,  0.0000,  0.0000)
  68 N      1.719424    0.000000   14.234965    ( 0.0000,  0.0000,  0.0000)
  69 N      5.151195    0.000000   14.234965    ( 0.0000,  0.0000,  0.0000)
  70 N      1.719424    3.658360   14.234965    ( 0.0000,  0.0000,  0.0000)
  71 N      5.151195    3.658360   14.234965    ( 0.0000,  0.0000,  0.0000)
  72 N      3.440605   -0.003584   17.471438    ( 0.0000,  0.0000,  0.0000)
  73 N      6.875325   -0.004261   17.470523    ( 0.0000,  0.0000,  0.0000)
  74 N      3.448109    3.654100   17.533323    ( 0.0000,  0.0000,  0.0000)
  75 N      6.857573    3.652929   17.534269    ( 0.0000,  0.0000,  0.0000)
  76 N      1.723697   -0.051219   20.689823    ( 0.0000,  0.0000,  0.0000)
  77 N      5.155455    0.044617   20.702513    ( 0.0000,  0.0000,  0.0000)
  78 N      1.720942    3.602408   20.711903    ( 0.0000,  0.0000,  0.0000)
  79 N      5.148868    3.714907   21.484797    ( 0.0000,  0.0000,  0.0000)
  80 Li     5.169882    4.395153   23.280822    ( 0.0000,  0.0000,  0.0000)

Unit cell:
           periodic     x           y           z      points  spacing
  1. axis:    yes    6.871100    0.000000    0.000000    35     0.1963
  2. axis:    yes    0.000000    7.316720    0.000000    36     0.2032
  3. axis:    yes    0.000000    0.000000   28.925800   144     0.2009

  Lengths:   6.871100   7.316720  28.925800
  Angles:   90.000000  90.000000  90.000000

Effective grid spacing dv^(1/3) = 0.2001

                     log10-error:    total        iterations:
           time      wfs    density  energy       fermi  poisson
iter:   1  22:59:56  -2.74         -285.341180    34            
iter:   2  23:00:01  -4.01  -2.48  -285.328760    34            
iter:   3  23:00:05  -3.92  -2.61  -285.314466    34            
iter:   4  23:00:10  -5.27  -2.98  -285.314452    6             
iter:   5  23:00:15  -4.99  -3.07  -285.313933    31            
iter:   6  23:00:20  -5.45  -3.22  -285.313525    4             
iter:   7  23:00:24  -5.87  -3.36  -285.313522    5             
iter:   8  23:00:29  -6.15  -3.50  -285.313494    4             
iter:   9  23:00:33  -6.18  -3.71  -285.313530    4             
iter:  10  23:00:38  -6.14  -3.63  -285.313491    5             
iter:  11  23:00:43  -7.42  -4.12  -285.313485    4             
iter:  12  23:00:47  -8.26  -4.19  -285.313484    3             

Converged after 12 iterations.

Dipole moment: (-0.640618, 1.663762, -0.877684) |e|*Ang

Energy contributions relative to reference atoms: (reference = -42004.487119)

Kinetic:       +301.816716
Potential:     -209.345473
External:        +0.000000
XC:            -375.926240
Entropy (-ST):   -0.007497
Local:           -1.854739
--------------------------
Free energy:   -285.317232
Extrapolated:  -285.313484

Fermi level: 0.45637

Showing only first 2 kpts
 Kpt  Band  Eigenvalues  Occupancy
  0    78     -0.42320    0.66667
  0    79     -0.29596    0.66667
  0    80      0.23552    0.66667
  0    81      0.93660    0.00000

  1    78     -0.69430    0.66667
  1    79     -0.68178    0.66667
  1    80      0.46767    0.16279
  1    81      1.21042    0.00000


No gap

Forces in eV/Ang:
  0 Li   -0.00011   -0.00001   -0.04528
  1 Li   -0.00008   -0.00001   -0.04477
  2 Li   -0.00010    0.00000   -0.04550
  3 Li   -0.00009    0.00000   -0.04499
  4 Li    0.00075   -0.00057    0.03601
  5 Li   -0.00076   -0.00051    0.03595
  6 Li    0.00075    0.00054    0.03595
  7 Li   -0.00077    0.00056    0.03589
  8 Li   -0.00004    0.00005   -0.02976
  9 Li   -0.00016    0.00005   -0.02998
 10 Li    0.00004   -0.00015   -0.03167
 11 Li   -0.00025   -0.00016   -0.03189
 12 Li    0.00026    0.00002   -0.00310
 13 Li   -0.00029    0.00022   -0.00341
 14 Li    0.00024   -0.00008   -0.00576
 15 Li   -0.00030   -0.00030   -0.00621
 16 Li   -0.00053   -0.00422   -0.04301
 17 Li    0.00058   -0.00420   -0.04330
 18 Li   -0.00172    0.00391   -0.04179
 19 Li    0.00177    0.00389   -0.04204
 20 Li    0.00081   -0.00135   -0.01399
 21 Li   -0.00057    0.00066   -0.01745
 22 Li    0.00059    0.00270   -0.02761
 23 Li   -0.00063    0.00092   -0.03256
 24 Li   -0.00351   -0.00079   -0.00743
 25 Li    0.00338   -0.00092   -0.00578
 26 Li   -0.00804    0.00177   -0.02099
 27 Li    0.00728    0.00186   -0.01972
 28 Li    0.00027   -0.00500    0.02311
 29 Li   -0.00092   -0.01845   -0.03819
 30 Li   -0.00052    0.02173   -0.03939
 31 Li   -0.00007    0.04695   -0.03807
 32 Li   -0.01183   -0.02551   -0.01716
 33 Li    0.04049   -0.03321   -0.01503
 34 Li   -0.17453   -0.06413   -0.05290
 35 Li    0.16423   -0.05887   -0.05650
 36 Li   -0.01501   -0.02763   -0.02925
 37 Li   -0.00570    0.02949    0.04831
 38 Li    0.00854    0.02106    0.00979
 39 Li    0.00769   -0.00209    0.05052
 40 Li   -0.04250   -0.01504   -0.03085
 41 Li    0.05043   -0.01481   -0.01514
 42 Li    0.03258   -0.00989    0.03223
 43 Li   -0.02336   -0.01013    0.02566
 44 Li   -0.00878   -0.03102    0.01016
 45 Li   -0.00495    0.01123    0.03068
 46 Li   -0.01311   -0.00674   -0.03325
 47 Li    0.00674   -0.06614   -0.05741
 48 Li    0.00493   -0.00954    0.02882
 49 Li   -0.01117   -0.00121    0.01153
 50 Li    0.08376    0.02842    0.02573
 51 Li   -0.08797    0.03693    0.00729
 52 Li    0.00323   -0.00637    0.01573
 53 Li    0.00191    0.10749   -0.01325
 54 Li    0.00189    0.08498   -0.01492
 55 Li    0.00026   -0.03277   -0.08160
 56 Li    0.04926   -0.01336    0.00467
 57 Li   -0.04404   -0.01819   -0.00435
 58 Li   -0.06670   -0.00837    0.02451
 59 Li    0.04035    0.00253    0.01638
 60 N     0.00333   -0.00020   -0.00221
 61 N    -0.00266    0.00079   -0.00338
 62 N     0.00330   -0.00110    0.00285
 63 N    -0.00282    0.00050    0.00114
 64 N     0.00208    0.00068    0.02477
 65 N    -0.00182    0.00069    0.02428
 66 N     0.00351   -0.00203    0.05085
 67 N    -0.00329   -0.00205    0.05029
 68 N     0.00677   -0.01457   -0.01117
 69 N    -0.00031    0.03051   -0.01186
 70 N     0.00184    0.05363    0.13798
 71 N    -0.00254    0.02432    0.14332
 72 N    -0.01223   -0.01393    0.02235
 73 N    -0.00439   -0.01769    0.02217
 74 N     0.01462   -0.01030   -0.00937
 75 N     0.00263   -0.01152   -0.00972
 76 N     0.00755    0.00806    0.04204
 77 N    -0.00474    0.03533    0.03746
 78 N     0.02449    0.02437    0.03303
 79 N     0.02784    0.00594   -0.04559
 80 Li   -0.02102   -0.03223   -0.04392

System changes: positions 

Initializing position-dependent things.

Density initialized from wave functions
     .----------------.  
    /|                |  
   / |                |  
  /  |                |  
 *   |                |  
 |   |                |  
 |   |                |  
 |   |                |  
 |   |                |  
 |   Li      Li Li    |  
 |   |   N            |  
 |  Li  Li Li   NLi   |  
 |   | N              |  
 |   |Li Li Li Li   Li|  
 |   N        N       |  
 |   | Li Li Li LiLi Li  
 |   |   Li N       N |  
 |Li | Li Li  Li      |  
 |   |          Li    |  
 |   |  Li Li    Li Li|  
 |   | N      LiN     |  
 |   |Li Li    Li Li  |  
 |   N     Li N     Li|  
 |   | Li   Li  Li   Li  
 |   |   LiN      LiN |  
 |   Li   Li  Li   Li |  
 |   | LiN      LiN   |  
 |   |     Li       Li|  
 |   LiNLi    LiNLi   |  
 |   |   Li       Li  |  
 |   NLi   Li NLi   Li|  
 |   |                |  
 |   |   Li       Li  |  
 |   |                |  
 |   |                |  
 |   |                |  
 |   .----------------.  
 |  /                /   
 | /                /    
 |/                /     
 *----------------*      

Positions:
   0 Li     3.435275    0.000000    6.598843    ( 0.0000,  0.0000,  0.0000)
   1 Li     6.870825    0.000000    6.599421    ( 0.0000,  0.0000,  0.0000)
   2 Li     3.435275    3.658360    6.598843    ( 0.0000,  0.0000,  0.0000)
   3 Li     6.870825    3.658360    6.599421    ( 0.0000,  0.0000,  0.0000)
   4 Li     1.718187    1.829180    7.583766    ( 0.0000,  0.0000,  0.0000)
   5 Li     5.152363    1.829180    7.583766    ( 0.0000,  0.0000,  0.0000)
   6 Li     1.718187    5.487540    7.583766    ( 0.0000,  0.0000,  0.0000)
   7 Li     5.152363    5.487540    7.583766    ( 0.0000,  0.0000,  0.0000)
   8 Li     3.435275    0.000000    8.718815    ( 0.0000,  0.0000,  0.0000)
   9 Li     6.870825    0.000000    8.718236    ( 0.0000,  0.0000,  0.0000)
  10 Li     3.435275    3.658360    8.718815    ( 0.0000,  0.0000,  0.0000)
  11 Li     6.870825    3.658360    8.718236    ( 0.0000,  0.0000,  0.0000)
  12 Li     1.717500    0.000000    9.900144    ( 0.0000,  0.0000,  0.0000)
  13 Li     5.153050    0.000000    9.900144    ( 0.0000,  0.0000,  0.0000)
  14 Li     1.717500    3.658360    9.900144    ( 0.0000,  0.0000,  0.0000)
  15 Li     5.153050    3.658360    9.900144    ( 0.0000,  0.0000,  0.0000)
  16 Li     3.435275    1.829180   10.960564    ( 0.0000,  0.0000,  0.0000)
  17 Li     6.870825    1.829180   10.960853    ( 0.0000,  0.0000,  0.0000)
  18 Li     3.435275    5.487540   10.960564    ( 0.0000,  0.0000,  0.0000)
  19 Li     6.870825    5.487540   10.960853    ( 0.0000,  0.0000,  0.0000)
  20 Li     1.717569    0.000000   12.007100    ( 0.0000,  0.0000,  0.0000)
  21 Li     5.153050    0.000000   12.007100    ( 0.0000,  0.0000,  0.0000)
  22 Li     1.717569    3.658360   12.007100    ( 0.0000,  0.0000,  0.0000)
  23 Li     5.153050    3.658360   12.007100    ( 0.0000,  0.0000,  0.0000)
  24 Li     3.435344    0.000000   13.180330    ( 0.0000,  0.0000,  0.0000)
  25 Li     6.870894    0.000000   13.180909    ( 0.0000,  0.0000,  0.0000)
  26 Li     3.435344    3.658360   13.180330    ( 0.0000,  0.0000,  0.0000)
  27 Li     6.870894    3.658360   13.180909    ( 0.0000,  0.0000,  0.0000)
  28 Li     1.718462    1.829180   14.234386    ( 0.0000,  0.0000,  0.0000)
  29 Li     5.152226    1.829180   14.234386    ( 0.0000,  0.0000,  0.0000)
  30 Li     1.718462    5.487540   14.234386    ( 0.0000,  0.0000,  0.0000)
  31 Li     5.152226    5.487540   14.234386    ( 0.0000,  0.0000,  0.0000)
  32 Li     3.435344    0.000000   15.285550    ( 0.0000,  0.0000,  0.0000)
  33 Li     6.870894    0.000000   15.285260    ( 0.0000,  0.0000,  0.0000)
  34 Li     3.435344    3.658360   15.285550    ( 0.0000,  0.0000,  0.0000)
  35 Li     6.870894    3.658360   15.285260    ( 0.0000,  0.0000,  0.0000)
  36 Li     1.720797   -0.036717   16.438600    ( 0.0000,  0.0000,  0.0000)
  37 Li     5.155008    0.046872   16.423477    ( 0.0000,  0.0000,  0.0000)
  38 Li     1.716795    3.750674   16.505495    ( 0.0000,  0.0000,  0.0000)
  39 Li     5.152029    3.688799   16.396882    ( 0.0000,  0.0000,  0.0000)
  40 Li     3.330318    1.820467   17.502377    ( 0.0000,  0.0000,  0.0000)
  41 Li     6.971317    1.819664   17.493405    ( 0.0000,  0.0000,  0.0000)
  42 Li     3.523653    5.484744   17.542605    ( 0.0000,  0.0000,  0.0000)
  43 Li     6.779708    5.483285   17.550400    ( 0.0000,  0.0000,  0.0000)
  44 Li     1.721813   -0.165299   18.539157    ( 0.0000,  0.0000,  0.0000)
  45 Li     5.159294    0.041305   18.527293    ( 0.0000,  0.0000,  0.0000)
  46 Li     1.719840    3.665975   18.637252    ( 0.0000,  0.0000,  0.0000)
  47 Li     5.152165    3.414411   18.415556    ( 0.0000,  0.0000,  0.0000)
  48 Li     3.449016    0.076900   19.702613    ( 0.0000,  0.0000,  0.0000)
  49 Li     6.868101    0.076632   19.706552    ( 0.0000,  0.0000,  0.0000)
  50 Li     3.517360    3.702782   19.895886    ( 0.0000,  0.0000,  0.0000)
  51 Li     6.792028    3.685968   19.896269    ( 0.0000,  0.0000,  0.0000)
  52 Li     1.725414    1.767235   20.690403    ( 0.0000,  0.0000,  0.0000)
  53 Li     5.152160    1.835499   21.225412    ( 0.0000,  0.0000,  0.0000)
  54 Li     1.716691    5.446399   20.863871    ( 0.0000,  0.0000,  0.0000)
  55 Li     5.157470    5.527723   20.946516    ( 0.0000,  0.0000,  0.0000)
  56 Li     6.910629   -0.060568   21.864025    ( 0.0000,  0.0000,  0.0000)
  57 Li     3.401527   -0.064690   21.863162    ( 0.0000,  0.0000,  0.0000)
  58 Li     7.174681    3.542259   22.050005    ( 0.0000,  0.0000,  0.0000)
  59 Li     3.145416    3.545107   22.054039    ( 0.0000,  0.0000,  0.0000)
  60 N      1.719355    0.000000    7.667940    ( 0.0000,  0.0000,  0.0000)
  61 N      5.151126    0.000000    7.667940    ( 0.0000,  0.0000,  0.0000)
  62 N      1.719355    3.658360    7.667940    ( 0.0000,  0.0000,  0.0000)
  63 N      5.151126    3.658360    7.667940    ( 0.0000,  0.0000,  0.0000)
  64 N      3.435275    0.000000   10.956225    ( 0.0000,  0.0000,  0.0000)
  65 N      6.870825    0.000000   10.956515    ( 0.0000,  0.0000,  0.0000)
  66 N      3.435275    3.658360   10.956225    ( 0.0000,  0.0000,  0.0000)
  67 N      6.870825    3.658360   10.956515    ( 0.0000,  0.0000,  0.0000)
  68 N      1.719424    0.000000   14.234965    ( 0.0000,  0.0000,  0.0000)
  69 N      5.151195    0.000000   14.234965    ( 0.0000,  0.0000,  0.0000)
  70 N      1.719424    3.658360   14.234965    ( 0.0000,  0.0000,  0.0000)
  71 N      5.151195    3.658360   14.234965    ( 0.0000,  0.0000,  0.0000)
  72 N      3.441545   -0.004331   17.472160    ( 0.0000,  0.0000,  0.0000)
  73 N      6.874323   -0.005750   17.471160    ( 0.0000,  0.0000,  0.0000)
  74 N      3.450132    3.653220   17.538098    ( 0.0000,  0.0000,  0.0000)
  75 N      6.855364    3.651762   17.539489    ( 0.0000,  0.0000,  0.0000)
  76 N      1.724337   -0.051711   20.694514    ( 0.0000,  0.0000,  0.0000)
  77 N      5.155923    0.047744   20.707260    ( 0.0000,  0.0000,  0.0000)
  78 N      1.721251    3.602289   20.718629    ( 0.0000,  0.0000,  0.0000)
  79 N      5.147447    3.718024   21.496672    ( 0.0000,  0.0000,  0.0000)
  80 Li     5.169474    4.405317   23.288350    ( 0.0000,  0.0000,  0.0000)

Unit cell:
           periodic     x           y           z      points  spacing
  1. axis:    yes    6.871100    0.000000    0.000000    35     0.1963
  2. axis:    yes    0.000000    7.316720    0.000000    36     0.2032
  3. axis:    yes    0.000000    0.000000   28.925800   144     0.2009

  Lengths:   6.871100   7.316720  28.925800
  Angles:   90.000000  90.000000  90.000000

Effective grid spacing dv^(1/3) = 0.2001

                     log10-error:    total        iterations:
           time      wfs    density  energy       fermi  poisson
iter:   1  23:00:56  -3.07         -285.328498    34            
iter:   2  23:01:00  -4.33  -2.66  -285.323342    6             
iter:   3  23:01:04  -4.27  -2.78  -285.317316    31            
iter:   4  23:01:09  -5.60  -3.15  -285.317281    5             
iter:   5  23:01:13  -5.35  -3.25  -285.317113    4             
iter:   6  23:01:18  -5.82  -3.37  -285.316899    4             
iter:   7  23:01:23  -6.16  -3.54  -285.316903    5             
iter:   8  23:01:27  -6.50  -3.66  -285.316886    4             
iter:   9  23:01:31  -6.49  -3.91  -285.316902    4             
iter:  10  23:01:36  -6.55  -3.83  -285.316885    4             
