
  ___ ___ ___ _ _ _  
 |   |   |_  | | | | 
 | | | | | . | | | | 
 |__ |  _|___|_____|  20.1.0
 |___|_|             

User:   jywang@lbnode01
Date:   Sun Jul 25 23:02:42 2021
Arch:   x86_64
Pid:    253909
Python: 3.7.4
gpaw:   /home/jywang/intel/intelpython3/lib/python3.7/site-packages/gpaw
_gpaw:  /home/jywang/intel/intelpython3/lib/python3.7/site-packages/
        _gpaw.cpython-37m-x86_64-linux-gnu.so
ase:    /home/jywang/intel/intelpython3/lib/python3.7/site-packages/ase (version 3.19.0)
numpy:  /home/jywang/intel/intelpython3/lib/python3.7/site-packages/numpy (version 1.17.4)
scipy:  /home/jywang/intel/intelpython3/lib/python3.7/site-packages/scipy (version 1.3.2)
libxc:  4.3.4
units:  Angstrom and eV
cores: 32
OMP_NUM_THREADS: 1

Input parameters:
  convergence: {eigenstates: 1e-08}
  kpts: [3 3 1]
  mode: {ecut: 450.00000000000006,
         gammacentered: False,
         name: pw}
  occupations: {name: fermi-dirac,
                width: 0.01}
  random: True
  xc: PBE

System changes: positions, numbers, cell, pbc, initial_charges, initial_magmoms 

Initialize ...

Li-setup:
  name: Lithium
  id: 830b4218f175192f93f959cfc0aad614
  Z: 3
  valence: 1
  core: 2
  charge: 0.0
  file: /home/jywang/gpaw_paws/gpaw-setups-0.9.20000/Li.PBE.gz
  compensation charges: gauss, rc=0.33, lmax=2
  cutoffs: 1.91(filt), 2.55(core),
  valence states:
                energy  radius
    2s(1.00)    -2.874   1.058
    2p(0.00)    -1.090   1.058
    *s          24.337   1.058

  Using partial waves for Li as LCAO basis

N-setup:
  name: Nitrogen
  id: f7500608b86eaa90eef8b1d9a670dc53
  Z: 7
  valence: 5
  core: 2
  charge: 0.0
  file: /home/jywang/gpaw_paws/gpaw-setups-0.9.20000/N.PBE.gz
  compensation charges: gauss, rc=0.18, lmax=2
  cutoffs: 1.11(filt), 0.96(core),
  valence states:
                energy  radius
    2s(2.00)   -18.583   0.603
    2p(3.00)    -7.089   0.529
    *s           8.629   0.603
    *p          20.123   0.529
    *d           0.000   0.577

  Using partial waves for N as LCAO basis

Reference energy: -42004.487119

Spin-paired calculation

Occupation numbers:
  Fermi-Dirac: width=0.0100 eV

Convergence criteria:
  Maximum total energy change: 0.0005 eV / electron
  Maximum integral of absolute density change: 0.0001 electrons
  Maximum integral of absolute eigenstate change: 1e-08 eV^2
  Maximum number of iterations: 333

Symmetries present (total): 1

  ( 1  0  0)
  ( 0  1  0)
  ( 0  0  1)

9 k-points: 3 x 3 x 1 Monkhorst-Pack grid
5 k-points in the irreducible part of the Brillouin zone
       k-points in crystal coordinates                weights
   0:     0.00000000    0.00000000    0.00000000          1/9
   1:     0.00000000    0.33333333    0.00000000          2/9
   2:     0.33333333   -0.33333333    0.00000000          2/9
   3:     0.33333333    0.00000000    0.00000000          2/9
   4:     0.33333333    0.33333333    0.00000000          2/9

Wave functions: Plane wave expansion
  Cutoff energy: 450.000 eV
  Number of coefficients (min, max): 31479, 31570
  Pulay-stress correction: 0.000000 eV/Ang^3 (de/decut=0.000000)
  Using FFTW library
  ScaLapack parameters: grid=1x1, blocksize=None
  Wavefunction extrapolation:
    Improved wavefunction reuse through dual PAW basis 

Eigensolver
   Davidson(niter=2, smin=None, normalize=True) 

Densities:
  Coarse grid: 35*36*144 grid
  Fine grid: 70*72*288 grid
  Total Charge: 0.000000 

Density mixing:
  Method: separate
  Backend: pulay
  Linear mixing parameter: 0.05
  Mixing with 5 old densities
  Damping of long wave oscillations: 50 

Hamiltonian:
  XC and Coulomb potentials evaluated on a 70*72*288 grid
  Using the PBE Exchange-Correlation functional
 

XC parameters: PBE with 2 nearest neighbor stencil

Memory estimate:
  Process memory now: 167.16 MiB
  Calculator: 307.89 MiB
    Density: 2.88 MiB
      Arrays: 1.13 MiB
      Localized functions: 1.31 MiB
      Mixer: 0.44 MiB
    Hamiltonian: 0.77 MiB
      Arrays: 0.74 MiB
      XC: 0.00 MiB
      Poisson: 0.00 MiB
      vbar: 0.03 MiB
    Wavefunctions: 304.25 MiB
      Arrays psit_nG: 243.27 MiB
      Eigensolver: 52.62 MiB
      Projections: 0.14 MiB
      Projectors: 0.64 MiB
      PW-descriptor: 7.58 MiB

Total number of cores used: 32
Domain decomposition: 2 x 2 x 8

Number of atoms: 81
Number of atomic orbitals: 324
Number of bands in calculation: 101
Number of valence electrons: 161
Bands to converge: occupied

... initialized

Initializing position-dependent things.

Density initialized from atomic densities
Creating initial wave functions:
  101 bands from LCAO basis set

     .----------------.  
    /|                |  
   / |                |  
  /  |                |  
 *   |                |  
 |   |                |  
 |   |                |  
 |   |                |  
 |   |                |  
 |   Li      Li Li    |  
 |   |   N            |  
 |  Li  Li Li   NLi   |  
 |   | N              |  
 |   |Li Li Li Li   Li|  
 |   N        N       |  
 |   | Li Li Li LiLi Li  
 |   |   Li N       N |  
 |Li | Li Li  Li      |  
 |   |          Li    |  
 |   |  Li Li    Li Li|  
 |   | N      LiN     |  
 |   |Li Li    Li Li  |  
 |   N     Li N     Li|  
 |   | Li   Li  Li   Li  
 |   |   LiN      LiN |  
 |   Li   Li  Li   Li |  
 |   | LiN      LiN   |  
 |   |     Li       Li|  
 |   LiNLi    LiNLi   |  
 |   |   Li       Li  |  
 |   NLi   Li NLi   Li|  
 |   |                |  
 |   |   Li       Li  |  
 |   |                |  
 |   |                |  
 |   |                |  
 |   .----------------.  
 |  /                /   
 | /                /    
 |/                /     
 *----------------*      

Positions:
   0 Li     3.435275    0.000000    6.598843    ( 0.0000,  0.0000,  0.0000)
   1 Li     6.870825    0.000000    6.599421    ( 0.0000,  0.0000,  0.0000)
   2 Li     3.435275    3.658360    6.598843    ( 0.0000,  0.0000,  0.0000)
   3 Li     6.870825    3.658360    6.599421    ( 0.0000,  0.0000,  0.0000)
   4 Li     1.718187    1.829180    7.583766    ( 0.0000,  0.0000,  0.0000)
   5 Li     5.152363    1.829180    7.583766    ( 0.0000,  0.0000,  0.0000)
   6 Li     1.718187    5.487540    7.583766    ( 0.0000,  0.0000,  0.0000)
   7 Li     5.152363    5.487540    7.583766    ( 0.0000,  0.0000,  0.0000)
   8 Li     3.435275    0.000000    8.718815    ( 0.0000,  0.0000,  0.0000)
   9 Li     6.870825    0.000000    8.718236    ( 0.0000,  0.0000,  0.0000)
  10 Li     3.435275    3.658360    8.718815    ( 0.0000,  0.0000,  0.0000)
  11 Li     6.870825    3.658360    8.718236    ( 0.0000,  0.0000,  0.0000)
  12 Li     1.717500    0.000000    9.900144    ( 0.0000,  0.0000,  0.0000)
  13 Li     5.153050    0.000000    9.900144    ( 0.0000,  0.0000,  0.0000)
  14 Li     1.717500    3.658360    9.900144    ( 0.0000,  0.0000,  0.0000)
  15 Li     5.153050    3.658360    9.900144    ( 0.0000,  0.0000,  0.0000)
  16 Li     3.435275    1.829180   10.960564    ( 0.0000,  0.0000,  0.0000)
  17 Li     6.870825    1.829180   10.960853    ( 0.0000,  0.0000,  0.0000)
  18 Li     3.435275    5.487540   10.960564    ( 0.0000,  0.0000,  0.0000)
  19 Li     6.870825    5.487540   10.960853    ( 0.0000,  0.0000,  0.0000)
  20 Li     1.717569    0.000000   12.007100    ( 0.0000,  0.0000,  0.0000)
  21 Li     5.153050    0.000000   12.007100    ( 0.0000,  0.0000,  0.0000)
  22 Li     1.717569    3.658360   12.007100    ( 0.0000,  0.0000,  0.0000)
  23 Li     5.153050    3.658360   12.007100    ( 0.0000,  0.0000,  0.0000)
  24 Li     3.435344    0.000000   13.180330    ( 0.0000,  0.0000,  0.0000)
  25 Li     6.870894    0.000000   13.180909    ( 0.0000,  0.0000,  0.0000)
  26 Li     3.435344    3.658360   13.180330    ( 0.0000,  0.0000,  0.0000)
  27 Li     6.870894    3.658360   13.180909    ( 0.0000,  0.0000,  0.0000)
  28 Li     1.718462    1.829180   14.234386    ( 0.0000,  0.0000,  0.0000)
  29 Li     5.152226    1.829180   14.234386    ( 0.0000,  0.0000,  0.0000)
  30 Li     1.718462    5.487540   14.234386    ( 0.0000,  0.0000,  0.0000)
  31 Li     5.152226    5.487540   14.234386    ( 0.0000,  0.0000,  0.0000)
  32 Li     3.435344    0.000000   15.285550    ( 0.0000,  0.0000,  0.0000)
  33 Li     6.870894    0.000000   15.285260    ( 0.0000,  0.0000,  0.0000)
  34 Li     3.435344    3.658360   15.285550    ( 0.0000,  0.0000,  0.0000)
  35 Li     6.870894    3.658360   15.285260    ( 0.0000,  0.0000,  0.0000)
  36 Li     1.721314   -0.028079   16.439156    ( 0.0000,  0.0000,  0.0000)
  37 Li     5.155262    0.040584   16.422655    ( 0.0000,  0.0000,  0.0000)
  38 Li     1.716152    3.742518   16.499426    ( 0.0000,  0.0000,  0.0000)
  39 Li     5.151930    3.688581   16.391095    ( 0.0000,  0.0000,  0.0000)
  40 Li     3.340844    1.821524   17.501155    ( 0.0000,  0.0000,  0.0000)
  41 Li     6.963778    1.821052   17.491559    ( 0.0000,  0.0000,  0.0000)
  42 Li     3.515414    5.485120   17.535304    ( 0.0000,  0.0000,  0.0000)
  43 Li     6.790148    5.484459   17.542753    ( 0.0000,  0.0000,  0.0000)
  44 Li     1.722068   -0.157262   18.539009    ( 0.0000,  0.0000,  0.0000)
  45 Li     5.158907    0.041273   18.526610    ( 0.0000,  0.0000,  0.0000)
  46 Li     1.720201    3.665886   18.633747    ( 0.0000,  0.0000,  0.0000)
  47 Li     5.152298    3.435983   18.413085    ( 0.0000,  0.0000,  0.0000)
  48 Li     3.450147    0.072352   19.700343    ( 0.0000,  0.0000,  0.0000)
  49 Li     6.866184    0.074420   19.704910    ( 0.0000,  0.0000,  0.0000)
  50 Li     3.515560    3.700651   19.890678    ( 0.0000,  0.0000,  0.0000)
  51 Li     6.794205    3.684147   19.892557    ( 0.0000,  0.0000,  0.0000)
  52 Li     1.725383    1.772113   20.679945    ( 0.0000,  0.0000,  0.0000)
  53 Li     5.151589    1.833765   21.219414    ( 0.0000,  0.0000,  0.0000)
  54 Li     1.717183    5.442743   20.851484    ( 0.0000,  0.0000,  0.0000)
  55 Li     5.158324    5.526406   20.945597    ( 0.0000,  0.0000,  0.0000)
  56 Li     6.916475   -0.059532   21.860508    ( 0.0000,  0.0000,  0.0000)
  57 Li     3.396404   -0.063223   21.860089    ( 0.0000,  0.0000,  0.0000)
  58 Li     7.175460    3.540550   22.045166    ( 0.0000,  0.0000,  0.0000)
  59 Li     3.144028    3.541232   22.047101    ( 0.0000,  0.0000,  0.0000)
  60 N      1.719355    0.000000    7.667940    ( 0.0000,  0.0000,  0.0000)
  61 N      5.151126    0.000000    7.667940    ( 0.0000,  0.0000,  0.0000)
  62 N      1.719355    3.658360    7.667940    ( 0.0000,  0.0000,  0.0000)
  63 N      5.151126    3.658360    7.667940    ( 0.0000,  0.0000,  0.0000)
  64 N      3.435275    0.000000   10.956225    ( 0.0000,  0.0000,  0.0000)
  65 N      6.870825    0.000000   10.956515    ( 0.0000,  0.0000,  0.0000)
  66 N      3.435275    3.658360   10.956225    ( 0.0000,  0.0000,  0.0000)
  67 N      6.870825    3.658360   10.956515    ( 0.0000,  0.0000,  0.0000)
  68 N      1.719424    0.000000   14.234965    ( 0.0000,  0.0000,  0.0000)
  69 N      5.151195    0.000000   14.234965    ( 0.0000,  0.0000,  0.0000)
  70 N      1.719424    3.658360   14.234965    ( 0.0000,  0.0000,  0.0000)
  71 N      5.151195    3.658360   14.234965    ( 0.0000,  0.0000,  0.0000)
  72 N      3.440605   -0.003584   17.471438    ( 0.0000,  0.0000,  0.0000)
  73 N      6.875325   -0.004261   17.470523    ( 0.0000,  0.0000,  0.0000)
  74 N      3.448109    3.654100   17.533323    ( 0.0000,  0.0000,  0.0000)
  75 N      6.857573    3.652929   17.534269    ( 0.0000,  0.0000,  0.0000)
  76 N      1.723697   -0.051219   20.689823    ( 0.0000,  0.0000,  0.0000)
  77 N      5.155455    0.044617   20.702513    ( 0.0000,  0.0000,  0.0000)
  78 N      1.720942    3.602408   20.711903    ( 0.0000,  0.0000,  0.0000)
  79 N      5.148868    3.714907   21.484797    ( 0.0000,  0.0000,  0.0000)
  80 Li     5.169882    4.395153   23.280822    ( 0.0000,  0.0000,  0.0000)

Unit cell:
           periodic     x           y           z      points  spacing
  1. axis:    yes    6.871100    0.000000    0.000000    35     0.1963
  2. axis:    yes    0.000000    7.316720    0.000000    36     0.2032
  3. axis:    yes    0.000000    0.000000   28.925800   144     0.2009

  Lengths:   6.871100   7.316720  28.925800
  Angles:   90.000000  90.000000  90.000000

Effective grid spacing dv^(1/3) = 0.2001

                     log10-error:    total        iterations:
           time      wfs    density  energy       fermi  poisson
iter:   1  23:03:12                -334.644116    3             
iter:   2  23:03:19  -0.97  -0.50  -320.334303    33            
iter:   3  23:03:25  -0.37  -0.56  -291.054378    5             
iter:   4  23:03:32  -1.02  -0.83  -287.597696    34            
iter:   5  23:03:38  -1.49  -0.97  -288.586327    30            
iter:   6  23:03:45  -1.64  -1.20  -285.679528    34            
iter:   7  23:03:52  -1.84  -1.44  -285.797919    35            
iter:   8  23:03:58  -2.26  -1.57  -285.437891    31            
iter:   9  23:04:05  -3.28  -1.69  -285.382344    32            
iter:  10  23:04:12  -2.67  -1.79  -285.365254    27            
iter:  11  23:04:19  -2.88  -1.95  -285.338177    32            
iter:  12  23:04:25  -3.76  -1.98  -285.319948    32            
iter:  13  23:04:32  -2.75  -2.07  -285.339152    31            
iter:  14  23:04:37  -3.70  -2.23  -285.325304    3             
iter:  15  23:04:45  -4.35  -2.47  -285.324124    2             
iter:  16  23:04:51  -4.30  -2.54  -285.324911    5             
iter:  17  23:04:57  -4.93  -2.83  -285.325286    4             
iter:  18  23:05:04  -5.59  -2.92  -285.325109    3             
iter:  19  23:05:10  -5.23  -2.99  -285.325133    3             
iter:  20  23:05:17  -5.49  -3.11  -285.325105    4             
iter:  21  23:05:23  -5.85  -3.22  -285.325060    4             
iter:  22  23:05:30  -6.18  -3.30  -285.325114    3             
iter:  23  23:05:36  -6.27  -3.39  -285.325183    3             
iter:  24  23:05:46  -6.76  -3.64  -285.325170    3             
iter:  25  23:05:52  -7.23  -3.68  -285.325165    3             
iter:  26  23:05:58  -7.17  -3.72  -285.325161    3             
iter:  27  23:06:04  -7.02  -3.81  -285.325161    3             
iter:  28  23:06:11  -6.46  -3.83  -285.325174    3             
iter:  29  23:06:17  -6.65  -3.99  -285.325166    3             
iter:  30  23:06:23  -7.26  -4.12  -285.325166    3             
iter:  31  23:06:29  -7.46  -4.08  -285.325165    3             
iter:  32  23:06:35  -7.92  -4.24  -285.325166    3             
iter:  33  23:06:40  -7.94  -4.26  -285.325165    3             
iter:  34  23:06:46  -8.46  -4.71  -285.325165    3             

Converged after 34 iterations.

Dipole moment: (-0.653972, 1.677731, -0.826058) |e|*Ang

Energy contributions relative to reference atoms: (reference = -42004.487119)

Kinetic:       +301.835943
Potential:     -209.364458
External:        +0.000000
XC:            -375.950019
Entropy (-ST):   -0.002693
Local:           -1.845284
--------------------------
Free energy:   -285.326511
Extrapolated:  -285.325165

Fermi level: 0.33742

Showing only first 2 kpts
 Kpt  Band  Eigenvalues  Occupancy
  0    78     -0.38248    0.22222
  0    79     -0.23827    0.22222
  0    80      0.02790    0.22222
  0    81      0.67876    0.00000

  1    78     -0.42276    0.44444
  1    79     -0.31018    0.44444
  1    80      0.32591    0.33764
  1    81      1.11648    0.00000


No gap

Forces in eV/Ang:
  0 Li   -0.00013    0.00005   -0.04393
  1 Li   -0.00006    0.00005   -0.04342
  2 Li   -0.00012   -0.00006   -0.04411
  3 Li   -0.00008   -0.00006   -0.04359
  4 Li    0.00077   -0.00054    0.03408
  5 Li   -0.00078   -0.00050    0.03400
  6 Li    0.00077    0.00052    0.03421
  7 Li   -0.00079    0.00054    0.03412
  8 Li   -0.00005   -0.00006   -0.03014
  9 Li   -0.00015   -0.00006   -0.03037
 10 Li    0.00004   -0.00005   -0.03205
 11 Li   -0.00025   -0.00005   -0.03228
 12 Li    0.00026   -0.00011   -0.00252
 13 Li   -0.00029    0.00010   -0.00281
 14 Li    0.00024    0.00005   -0.00518
 15 Li   -0.00030   -0.00019   -0.00562
 16 Li   -0.00059   -0.00423   -0.04300
 17 Li    0.00063   -0.00422   -0.04328
 18 Li   -0.00165    0.00394   -0.04224
 19 Li    0.00168    0.00393   -0.04248
 20 Li    0.00080   -0.00101   -0.01471
 21 Li   -0.00056    0.00088   -0.01821
 22 Li    0.00058    0.00233   -0.02812
 23 Li   -0.00061    0.00071   -0.03313
 24 Li   -0.00353   -0.00044   -0.00678
 25 Li    0.00340   -0.00056   -0.00511
 26 Li   -0.00806    0.00148   -0.02050
 27 Li    0.00730    0.00156   -0.01922
 28 Li    0.00023   -0.00491    0.02303
 29 Li   -0.00090   -0.01842   -0.03854
 30 Li   -0.00052    0.02156   -0.03883
 31 Li   -0.00010    0.04689   -0.03739
 32 Li   -0.01194   -0.02631   -0.01882
 33 Li    0.04060   -0.03402   -0.01674
 34 Li   -0.17477   -0.06325   -0.05486
 35 Li    0.16447   -0.05804   -0.05863
 36 Li   -0.01511   -0.02869   -0.02948
 37 Li   -0.00575    0.02815    0.04825
 38 Li    0.00865    0.02153    0.00950
 39 Li    0.00760   -0.00150    0.05134
 40 Li   -0.03939   -0.01619   -0.03036
 41 Li    0.04750   -0.01587   -0.01414
 42 Li    0.03182   -0.00938    0.03024
 43 Li   -0.02255   -0.00964    0.02362
 44 Li   -0.00890   -0.02985    0.00262
 45 Li   -0.00491    0.01277    0.02342
 46 Li   -0.01328   -0.00781   -0.04177
 47 Li    0.00689   -0.06784   -0.06248
 48 Li    0.00578   -0.00834    0.02619
 49 Li   -0.01193    0.00009    0.00888
 50 Li    0.08406    0.02591    0.02142
 51 Li   -0.08836    0.03449    0.00254
 52 Li    0.00300   -0.00951    0.02339
 53 Li    0.00208    0.10028   -0.00682
 54 Li    0.00221    0.08853   -0.01951
 55 Li    0.00019   -0.03156   -0.07785
 56 Li    0.04527   -0.00952    0.00314
 57 Li   -0.04031   -0.01478   -0.00565
 58 Li   -0.07491   -0.01340    0.01348
 59 Li    0.04917   -0.00213    0.00613
 60 N     0.00327   -0.00016   -0.00100
 61 N    -0.00261    0.00084   -0.00208
 62 N     0.00324   -0.00111    0.00388
 63 N    -0.00276    0.00044    0.00220
 64 N     0.00213    0.00025    0.02229
 65 N    -0.00186    0.00026    0.02178
 66 N     0.00340   -0.00148    0.04661
 67 N    -0.00315   -0.00149    0.04604
 68 N     0.00667   -0.01366   -0.01525
 69 N    -0.00023    0.03055   -0.01604
 70 N     0.00171    0.05154    0.12619
 71 N    -0.00234    0.02241    0.13312
 72 N    -0.01048   -0.01505    0.01214
 73 N    -0.00403   -0.01869    0.01200
 74 N     0.01254   -0.00594   -0.01174
 75 N     0.00474   -0.00717   -0.01034
 76 N     0.00818    0.00398    0.03248
 77 N    -0.00341    0.04037    0.03206
 78 N     0.02284    0.03044    0.03764
 79 N     0.02437    0.00169   -0.02831
 80 Li   -0.02172   -0.02641   -0.04166

System changes: positions 

Initializing position-dependent things.

Density initialized from wave functions
     .----------------.  
    /|                |  
   / |                |  
  /  |                |  
 *   |                |  
 |   |                |  
 |   |                |  
 |   |                |  
 |   |                |  
 |   Li      Li Li    |  
 |   |   N            |  
 |  Li  Li Li   NLi   |  
 |   | N              |  
 |   |Li Li Li Li   Li|  
 |   N        N       |  
 |   | Li Li Li LiLi Li  
 |   |   Li N       N |  
 |Li | Li Li  Li      |  
 |   |          Li    |  
 |   |  Li Li    Li Li|  
 |   | N      LiN     |  
 |   |Li Li    Li Li  |  
 |   N     Li N     Li|  
 |   | Li   Li  Li   Li  
 |   |   LiN      LiN |  
 |   Li   Li  Li   Li |  
 |   | LiN      LiN   |  
 |   |     Li       Li|  
 |   LiNLi    LiNLi   |  
 |   |   Li       Li  |  
 |   NLi   Li NLi   Li|  
 |   |                |  
 |   |   Li       Li  |  
 |   |                |  
 |   |                |  
 |   |                |  
 |   .----------------.  
 |  /                /   
 | /                /    
 |/                /     
 *----------------*      

Positions:
   0 Li     3.435275    0.000000    6.598843    ( 0.0000,  0.0000,  0.0000)
   1 Li     6.870825    0.000000    6.599421    ( 0.0000,  0.0000,  0.0000)
   2 Li     3.435275    3.658360    6.598843    ( 0.0000,  0.0000,  0.0000)
   3 Li     6.870825    3.658360    6.599421    ( 0.0000,  0.0000,  0.0000)
   4 Li     1.718187    1.829180    7.583766    ( 0.0000,  0.0000,  0.0000)
   5 Li     5.152363    1.829180    7.583766    ( 0.0000,  0.0000,  0.0000)
   6 Li     1.718187    5.487540    7.583766    ( 0.0000,  0.0000,  0.0000)
   7 Li     5.152363    5.487540    7.583766    ( 0.0000,  0.0000,  0.0000)
   8 Li     3.435275    0.000000    8.718815    ( 0.0000,  0.0000,  0.0000)
   9 Li     6.870825    0.000000    8.718236    ( 0.0000,  0.0000,  0.0000)
  10 Li     3.435275    3.658360    8.718815    ( 0.0000,  0.0000,  0.0000)
  11 Li     6.870825    3.658360    8.718236    ( 0.0000,  0.0000,  0.0000)
  12 Li     1.717500    0.000000    9.900144    ( 0.0000,  0.0000,  0.0000)
  13 Li     5.153050    0.000000    9.900144    ( 0.0000,  0.0000,  0.0000)
  14 Li     1.717500    3.658360    9.900144    ( 0.0000,  0.0000,  0.0000)
  15 Li     5.153050    3.658360    9.900144    ( 0.0000,  0.0000,  0.0000)
  16 Li     3.435275    1.829180   10.960564    ( 0.0000,  0.0000,  0.0000)
  17 Li     6.870825    1.829180   10.960853    ( 0.0000,  0.0000,  0.0000)
  18 Li     3.435275    5.487540   10.960564    ( 0.0000,  0.0000,  0.0000)
  19 Li     6.870825    5.487540   10.960853    ( 0.0000,  0.0000,  0.0000)
  20 Li     1.717569    0.000000   12.007100    ( 0.0000,  0.0000,  0.0000)
  21 Li     5.153050    0.000000   12.007100    ( 0.0000,  0.0000,  0.0000)
  22 Li     1.717569    3.658360   12.007100    ( 0.0000,  0.0000,  0.0000)
  23 Li     5.153050    3.658360   12.007100    ( 0.0000,  0.0000,  0.0000)
  24 Li     3.435344    0.000000   13.180330    ( 0.0000,  0.0000,  0.0000)
  25 Li     6.870894    0.000000   13.180909    ( 0.0000,  0.0000,  0.0000)
  26 Li     3.435344    3.658360   13.180330    ( 0.0000,  0.0000,  0.0000)
  27 Li     6.870894    3.658360   13.180909    ( 0.0000,  0.0000,  0.0000)
  28 Li     1.718462    1.829180   14.234386    ( 0.0000,  0.0000,  0.0000)
  29 Li     5.152226    1.829180   14.234386    ( 0.0000,  0.0000,  0.0000)
  30 Li     1.718462    5.487540   14.234386    ( 0.0000,  0.0000,  0.0000)
  31 Li     5.152226    5.487540   14.234386    ( 0.0000,  0.0000,  0.0000)
  32 Li     3.435344    0.000000   15.285550    ( 0.0000,  0.0000,  0.0000)
  33 Li     6.870894    0.000000   15.285260    ( 0.0000,  0.0000,  0.0000)
  34 Li     3.435344    3.658360   15.285550    ( 0.0000,  0.0000,  0.0000)
  35 Li     6.870894    3.658360   15.285260    ( 0.0000,  0.0000,  0.0000)
  36 Li     1.721099   -0.028489   16.438734    ( 0.0000,  0.0000,  0.0000)
  37 Li     5.155180    0.040986   16.423344    ( 0.0000,  0.0000,  0.0000)
  38 Li     1.716276    3.742826   16.499562    ( 0.0000,  0.0000,  0.0000)
  39 Li     5.152039    3.688559   16.391828    ( 0.0000,  0.0000,  0.0000)
  40 Li     3.340281    1.821293   17.500721    ( 0.0000,  0.0000,  0.0000)
  41 Li     6.964456    1.820826   17.491357    ( 0.0000,  0.0000,  0.0000)
  42 Li     3.515868    5.484986   17.535736    ( 0.0000,  0.0000,  0.0000)
  43 Li     6.789826    5.484321   17.543091    ( 0.0000,  0.0000,  0.0000)
  44 Li     1.721941   -0.157689   18.539047    ( 0.0000,  0.0000,  0.0000)
  45 Li     5.158837    0.041456   18.526945    ( 0.0000,  0.0000,  0.0000)
  46 Li     1.720011    3.665774   18.633150    ( 0.0000,  0.0000,  0.0000)
  47 Li     5.152396    3.435014   18.412193    ( 0.0000,  0.0000,  0.0000)
  48 Li     3.450230    0.072233   19.700717    ( 0.0000,  0.0000,  0.0000)
  49 Li     6.866013    0.074422   19.705037    ( 0.0000,  0.0000,  0.0000)
  50 Li     3.516761    3.701021   19.890984    ( 0.0000,  0.0000,  0.0000)
  51 Li     6.792943    3.684640   19.892593    ( 0.0000,  0.0000,  0.0000)
  52 Li     1.725426    1.771978   20.680279    ( 0.0000,  0.0000,  0.0000)
  53 Li     5.151619    1.835197   21.219317    ( 0.0000,  0.0000,  0.0000)
  54 Li     1.717215    5.444008   20.851205    ( 0.0000,  0.0000,  0.0000)
  55 Li     5.158327    5.525955   20.944485    ( 0.0000,  0.0000,  0.0000)
  56 Li     6.917121   -0.059668   21.860553    ( 0.0000,  0.0000,  0.0000)
  57 Li     3.395828   -0.063434   21.860009    ( 0.0000,  0.0000,  0.0000)
  58 Li     7.174390    3.540359   22.045359    ( 0.0000,  0.0000,  0.0000)
  59 Li     3.144730    3.541202   22.047188    ( 0.0000,  0.0000,  0.0000)
  60 N      1.719355    0.000000    7.667940    ( 0.0000,  0.0000,  0.0000)
  61 N      5.151126    0.000000    7.667940    ( 0.0000,  0.0000,  0.0000)
  62 N      1.719355    3.658360    7.667940    ( 0.0000,  0.0000,  0.0000)
  63 N      5.151126    3.658360    7.667940    ( 0.0000,  0.0000,  0.0000)
  64 N      3.435275    0.000000   10.956225    ( 0.0000,  0.0000,  0.0000)
  65 N      6.870825    0.000000   10.956515    ( 0.0000,  0.0000,  0.0000)
  66 N      3.435275    3.658360   10.956225    ( 0.0000,  0.0000,  0.0000)
  67 N      6.870825    3.658360   10.956515    ( 0.0000,  0.0000,  0.0000)
  68 N      1.719424    0.000000   14.234965    ( 0.0000,  0.0000,  0.0000)
  69 N      5.151195    0.000000   14.234965    ( 0.0000,  0.0000,  0.0000)
  70 N      1.719424    3.658360   14.234965    ( 0.0000,  0.0000,  0.0000)
  71 N      5.151195    3.658360   14.234965    ( 0.0000,  0.0000,  0.0000)
  72 N      3.440455   -0.003799   17.471612    ( 0.0000,  0.0000,  0.0000)
  73 N      6.875267   -0.004528   17.470695    ( 0.0000,  0.0000,  0.0000)
  74 N      3.448288    3.654015   17.533155    ( 0.0000,  0.0000,  0.0000)
  75 N      6.857641    3.652826   17.534122    ( 0.0000,  0.0000,  0.0000)
  76 N      1.723814   -0.051163   20.690287    ( 0.0000,  0.0000,  0.0000)
  77 N      5.155406    0.045194   20.702971    ( 0.0000,  0.0000,  0.0000)
  78 N      1.721268    3.602843   20.712441    ( 0.0000,  0.0000,  0.0000)
  79 N      5.149217    3.714931   21.484392    ( 0.0000,  0.0000,  0.0000)
  80 Li     5.169572    4.394775   23.280227    ( 0.0000,  0.0000,  0.0000)

Unit cell:
           periodic     x           y           z      points  spacing
  1. axis:    yes    6.871100    0.000000    0.000000    35     0.1963
  2. axis:    yes    0.000000    7.316720    0.000000    36     0.2032
  3. axis:    yes    0.000000    0.000000   28.925800   144     0.2009

  Lengths:   6.871100   7.316720  28.925800
  Angles:   90.000000  90.000000  90.000000

Effective grid spacing dv^(1/3) = 0.2001

                     log10-error:    total        iterations:
           time      wfs    density  energy       fermi  poisson
iter:   1  23:06:57  -5.32         -285.326526    3             
iter:   2  23:07:03  -6.53  -3.91  -285.326523    3             
iter:   3  23:07:09  -6.18  -3.93  -285.326511    3             
iter:   4  23:07:15  -7.67  -4.17  -285.326507    3             
iter:   5  23:07:22  -6.98  -4.22  -285.326506    3             
iter:   6  23:07:28  -7.32  -4.35  -285.326504    3             
iter:   7  23:07:35  -8.31  -4.60  -285.326504    2             

Converged after 7 iterations.

Dipole moment: (-0.648439, 1.676296, -0.826973) |e|*Ang

Energy contributions relative to reference atoms: (reference = -42004.487119)

Kinetic:       +301.835372
Potential:     -209.366740
External:        +0.000000
XC:            -375.948851
Entropy (-ST):   -0.002693
Local:           -1.844939
--------------------------
Free energy:   -285.327851
Extrapolated:  -285.326504

Fermi level: 0.33818

Showing only first 2 kpts
 Kpt  Band  Eigenvalues  Occupancy
  0    78     -0.38297    0.22222
  0    79     -0.23850    0.22222
  0    80      0.02853    0.22222
  0    81      0.67865    0.00000

  1    78     -0.42308    0.44444
  1    79     -0.31044    0.44444
  1    80      0.32667    0.33763
  1    81      1.11640    0.00000


No gap

Forces in eV/Ang:
  0 Li   -0.00013    0.00005   -0.04387
  1 Li   -0.00006    0.00005   -0.04335
  2 Li   -0.00012   -0.00006   -0.04404
  3 Li   -0.00008   -0.00006   -0.04353
  4 Li    0.00077   -0.00054    0.03422
  5 Li   -0.00079   -0.00050    0.03413
  6 Li    0.00077    0.00052    0.03435
  7 Li   -0.00079    0.00054    0.03426
  8 Li   -0.00006   -0.00006   -0.03012
  9 Li   -0.00014   -0.00005   -0.03034
 10 Li    0.00003   -0.00005   -0.03202
 11 Li   -0.00024   -0.00005   -0.03224
 12 Li    0.00026   -0.00011   -0.00259
 13 Li   -0.00029    0.00011   -0.00291
 14 Li    0.00024    0.00004   -0.00527
 15 Li   -0.00030   -0.00019   -0.00573
 16 Li   -0.00059   -0.00423   -0.04310
 17 Li    0.00063   -0.00422   -0.04338
 18 Li   -0.00166    0.00394   -0.04233
 19 Li    0.00170    0.00392   -0.04257
 20 Li    0.00079   -0.00102   -0.01482
 21 Li   -0.00055    0.00089   -0.01822
 22 Li    0.00058    0.00236   -0.02816
 23 Li   -0.00061    0.00070   -0.03308
 24 Li   -0.00348   -0.00048   -0.00681
 25 Li    0.00331   -0.00059   -0.00515
 26 Li   -0.00799    0.00151   -0.02043
 27 Li    0.00725    0.00159   -0.01916
 28 Li    0.00024   -0.00474    0.02280
 29 Li   -0.00090   -0.01827   -0.03837
 30 Li   -0.00049    0.02135   -0.03927
 31 Li   -0.00012    0.04687   -0.03681
 32 Li   -0.01062   -0.02684   -0.01861
 33 Li    0.03802   -0.03444   -0.01700
 34 Li   -0.17312   -0.06313   -0.05465
 35 Li    0.16381   -0.05803   -0.05848
 36 Li   -0.01346   -0.02943   -0.02625
 37 Li   -0.00542    0.02746    0.04470
 38 Li    0.00827    0.02207    0.00705
 39 Li    0.00699   -0.00070    0.04285
 40 Li   -0.03952   -0.01481   -0.02920
 41 Li    0.04739   -0.01521   -0.01368
 42 Li    0.03110   -0.00922    0.02970
 43 Li   -0.02229   -0.00993    0.02299
 44 Li   -0.00775   -0.02906    0.00292
 45 Li   -0.00528    0.01353    0.02321
 46 Li   -0.01106   -0.00797   -0.03273
 47 Li    0.00617   -0.07038   -0.05832
 48 Li    0.00407   -0.00651    0.02466
 49 Li   -0.01002    0.00155    0.00984
 50 Li    0.07536    0.02515    0.02117
 51 Li   -0.07740    0.03374    0.00529
 52 Li    0.00286   -0.00159    0.02263
 53 Li    0.00194    0.08390   -0.00790
 54 Li    0.00191    0.06920   -0.01858
 55 Li    0.00041   -0.02177   -0.07529
 56 Li    0.04157   -0.00847    0.00419
 57 Li   -0.03658   -0.01343   -0.00333
 58 Li   -0.06724   -0.01229    0.01011
 59 Li    0.04459   -0.00148    0.00506
 60 N     0.00328   -0.00014   -0.00249
 61 N    -0.00261    0.00085   -0.00358
 62 N     0.00325   -0.00110    0.00237
 63 N    -0.00276    0.00044    0.00068
 64 N     0.00208    0.00024    0.02306
 65 N    -0.00181    0.00024    0.02254
 66 N     0.00338   -0.00150    0.04729
 67 N    -0.00314   -0.00150    0.04670
 68 N     0.00644   -0.01370   -0.01438
 69 N    -0.00019    0.03126   -0.01463
 70 N     0.00172    0.05166    0.12686
 71 N    -0.00218    0.02233    0.13442
 72 N    -0.01048   -0.01423    0.01263
 73 N    -0.00466   -0.01652    0.01271
 74 N     0.01227   -0.00729   -0.00991
 75 N     0.00417   -0.00812   -0.00870
 76 N     0.00581    0.01121    0.02506
 77 N    -0.00233    0.03638    0.03143
 78 N     0.01811    0.03067    0.03135
 79 N     0.02262    0.00931   -0.02260
 80 Li   -0.02128   -0.02421   -0.03989

System changes: positions 

Initializing position-dependent things.

Density initialized from wave functions
     .----------------.  
    /|                |  
   / |                |  
  /  |                |  
 *   |                |  
 |   |                |  
 |   |                |  
 |   |                |  
 |   |                |  
 |   Li      Li Li    |  
 |   |   N            |  
 |  Li  Li Li   NLi   |  
 |   | N              |  
 |   |Li Li Li Li   Li|  
 |   N        N       |  
 |   | Li Li Li LiLi Li  
 |   |   Li N       N |  
 |Li | Li Li  Li      |  
 |   |          Li    |  
 |   |  Li Li    Li Li|  
 |   | N      LiN     |  
 |   |Li Li    Li Li  |  
 |   N     Li N     Li|  
 |   | Li   Li  Li   Li  
 |   |   LiN      LiN |  
 |   Li   Li  Li   Li |  
 |   | LiN      LiN   |  
 |   |     Li       Li|  
 |   LiNLi    LiNLi   |  
 |   |   Li       Li  |  
 |   NLi   Li NLi   Li|  
 |   |                |  
 |   |   Li       Li  |  
 |   |                |  
 |   |                |  
 |   |                |  
 |   .----------------.  
 |  /                /   
 | /                /    
 |/                /     
 *----------------*      

Positions:
   0 Li     3.435275    0.000000    6.598843    ( 0.0000,  0.0000,  0.0000)
   1 Li     6.870825    0.000000    6.599421    ( 0.0000,  0.0000,  0.0000)
   2 Li     3.435275    3.658360    6.598843    ( 0.0000,  0.0000,  0.0000)
   3 Li     6.870825    3.658360    6.599421    ( 0.0000,  0.0000,  0.0000)
   4 Li     1.718187    1.829180    7.583766    ( 0.0000,  0.0000,  0.0000)
   5 Li     5.152363    1.829180    7.583766    ( 0.0000,  0.0000,  0.0000)
   6 Li     1.718187    5.487540    7.583766    ( 0.0000,  0.0000,  0.0000)
   7 Li     5.152363    5.487540    7.583766    ( 0.0000,  0.0000,  0.0000)
   8 Li     3.435275    0.000000    8.718815    ( 0.0000,  0.0000,  0.0000)
   9 Li     6.870825    0.000000    8.718236    ( 0.0000,  0.0000,  0.0000)
  10 Li     3.435275    3.658360    8.718815    ( 0.0000,  0.0000,  0.0000)
  11 Li     6.870825    3.658360    8.718236    ( 0.0000,  0.0000,  0.0000)
  12 Li     1.717500    0.000000    9.900144    ( 0.0000,  0.0000,  0.0000)
  13 Li     5.153050    0.000000    9.900144    ( 0.0000,  0.0000,  0.0000)
  14 Li     1.717500    3.658360    9.900144    ( 0.0000,  0.0000,  0.0000)
  15 Li     5.153050    3.658360    9.900144    ( 0.0000,  0.0000,  0.0000)
  16 Li     3.435275    1.829180   10.960564    ( 0.0000,  0.0000,  0.0000)
  17 Li     6.870825    1.829180   10.960853    ( 0.0000,  0.0000,  0.0000)
  18 Li     3.435275    5.487540   10.960564    ( 0.0000,  0.0000,  0.0000)
  19 Li     6.870825    5.487540   10.960853    ( 0.0000,  0.0000,  0.0000)
  20 Li     1.717569    0.000000   12.007100    ( 0.0000,  0.0000,  0.0000)
  21 Li     5.153050    0.000000   12.007100    ( 0.0000,  0.0000,  0.0000)
  22 Li     1.717569    3.658360   12.007100    ( 0.0000,  0.0000,  0.0000)
  23 Li     5.153050    3.658360   12.007100    ( 0.0000,  0.0000,  0.0000)
  24 Li     3.435344    0.000000   13.180330    ( 0.0000,  0.0000,  0.0000)
  25 Li     6.870894    0.000000   13.180909    ( 0.0000,  0.0000,  0.0000)
  26 Li     3.435344    3.658360   13.180330    ( 0.0000,  0.0000,  0.0000)
  27 Li     6.870894    3.658360   13.180909    ( 0.0000,  0.0000,  0.0000)
  28 Li     1.718462    1.829180   14.234386    ( 0.0000,  0.0000,  0.0000)
  29 Li     5.152226    1.829180   14.234386    ( 0.0000,  0.0000,  0.0000)
  30 Li     1.718462    5.487540   14.234386    ( 0.0000,  0.0000,  0.0000)
  31 Li     5.152226    5.487540   14.234386    ( 0.0000,  0.0000,  0.0000)
  32 Li     3.435344    0.000000   15.285550    ( 0.0000,  0.0000,  0.0000)
  33 Li     6.870894    0.000000   15.285260    ( 0.0000,  0.0000,  0.0000)
  34 Li     3.435344    3.658360   15.285550    ( 0.0000,  0.0000,  0.0000)
  35 Li     6.870894    3.658360   15.285260    ( 0.0000,  0.0000,  0.0000)
  36 Li     1.718944   -0.033148   16.434533    ( 0.0000,  0.0000,  0.0000)
  37 Li     5.154317    0.045349   16.430476    ( 0.0000,  0.0000,  0.0000)
  38 Li     1.717591    3.746321   16.500708    ( 0.0000,  0.0000,  0.0000)
  39 Li     5.153155    3.688440   16.398724    ( 0.0000,  0.0000,  0.0000)
  40 Li     3.334014    1.818928   17.496076    ( 0.0000,  0.0000,  0.0000)
  41 Li     6.971974    1.818405   17.489181    ( 0.0000,  0.0000,  0.0000)
  42 Li     3.520809    5.483521   17.540453    ( 0.0000,  0.0000,  0.0000)
  43 Li     6.786287    5.482750   17.546744    ( 0.0000,  0.0000,  0.0000)
  44 Li     1.720699   -0.162308   18.539506    ( 0.0000,  0.0000,  0.0000)
  45 Li     5.158004    0.043594   18.530628    ( 0.0000,  0.0000,  0.0000)
  46 Li     1.718230    3.664511   18.627852    ( 0.0000,  0.0000,  0.0000)
  47 Li     5.153384    3.423881   18.402894    ( 0.0000,  0.0000,  0.0000)
  48 Li     3.450896    0.071179   19.704647    ( 0.0000,  0.0000,  0.0000)
  49 Li     6.864401    0.074650   19.706586    ( 0.0000,  0.0000,  0.0000)
  50 Li     3.528816    3.705019   19.894345    ( 0.0000,  0.0000,  0.0000)
  51 Li     6.780537    3.690001   19.893400    ( 0.0000,  0.0000,  0.0000)
  52 Li     1.725882    1.771632   20.683878    ( 0.0000,  0.0000,  0.0000)
  53 Li     5.151928    1.848697   21.218075    ( 0.0000,  0.0000,  0.0000)
  54 Li     1.717521    5.455211   20.848247    ( 0.0000,  0.0000,  0.0000)
  55 Li     5.158389    5.522387   20.932512    ( 0.0000,  0.0000,  0.0000)
  56 Li     6.923758   -0.061023   21.861205    ( 0.0000,  0.0000,  0.0000)
  57 Li     3.389982   -0.065580   21.859453    ( 0.0000,  0.0000,  0.0000)
  58 Li     7.163634    3.538396   22.047002    ( 0.0000,  0.0000,  0.0000)
  59 Li     3.151856    3.540959   22.048003    ( 0.0000,  0.0000,  0.0000)
  60 N      1.719355    0.000000    7.667940    ( 0.0000,  0.0000,  0.0000)
  61 N      5.151126    0.000000    7.667940    ( 0.0000,  0.0000,  0.0000)
  62 N      1.719355    3.658360    7.667940    ( 0.0000,  0.0000,  0.0000)
  63 N      5.151126    3.658360    7.667940    ( 0.0000,  0.0000,  0.0000)
  64 N      3.435275    0.000000   10.956225    ( 0.0000,  0.0000,  0.0000)
  65 N      6.870825    0.000000   10.956515    ( 0.0000,  0.0000,  0.0000)
  66 N      3.435275    3.658360   10.956225    ( 0.0000,  0.0000,  0.0000)
  67 N      6.870825    3.658360   10.956515    ( 0.0000,  0.0000,  0.0000)
  68 N      1.719424    0.000000   14.234965    ( 0.0000,  0.0000,  0.0000)
  69 N      5.151195    0.000000   14.234965    ( 0.0000,  0.0000,  0.0000)
  70 N      1.719424    3.658360   14.234965    ( 0.0000,  0.0000,  0.0000)
  71 N      5.151195    3.658360   14.234965    ( 0.0000,  0.0000,  0.0000)
  72 N      3.438792   -0.006066   17.473610    ( 0.0000,  0.0000,  0.0000)
  73 N      6.874535   -0.007174   17.472702    ( 0.0000,  0.0000,  0.0000)
  74 N      3.450237    3.652875   17.531562    ( 0.0000,  0.0000,  0.0000)
  75 N      6.858309    3.651550   17.532723    ( 0.0000,  0.0000,  0.0000)
  76 N      1.724763   -0.049469   20.694349    ( 0.0000,  0.0000,  0.0000)
  77 N      5.155023    0.051011   20.707964    ( 0.0000,  0.0000,  0.0000)
  78 N      1.724197    3.607705   20.717488    ( 0.0000,  0.0000,  0.0000)
  79 N      5.152824    3.716318   21.480741    ( 0.0000,  0.0000,  0.0000)
  80 Li     5.166191    4.390910   23.273879    ( 0.0000,  0.0000,  0.0000)

Unit cell:
           periodic     x           y           z      points  spacing
  1. axis:    yes    6.871100    0.000000    0.000000    35     0.1963
  2. axis:    yes    0.000000    7.316720    0.000000    36     0.2032
  3. axis:    yes    0.000000    0.000000   28.925800   144     0.2009

  Lengths:   6.871100   7.316720  28.925800
  Angles:   90.000000  90.000000  90.000000

Effective grid spacing dv^(1/3) = 0.2001

                     log10-error:    total        iterations:
           time      wfs    density  energy       fermi  poisson
iter:   1  23:07:45  -3.33         -285.335457    4             
iter:   2  23:07:52  -4.53  -2.96  -285.335349    3             
iter:   3  23:07:58  -4.31  -2.98  -285.334287    4             
iter:   4  23:08:06  -5.91  -3.25  -285.334058    3             
iter:   5  23:08:12  -5.02  -3.28  -285.333970    4             
iter:   6  23:08:18  -5.40  -3.38  -285.333816    3             
iter:   7  23:08:24  -6.64  -3.67  -285.333798    2             
iter:   8  23:08:30  -6.31  -3.83  -285.333788    3             
iter:   9  23:08:36  -7.38  -4.05  -285.333786    2             
iter:  10  23:08:43  -7.26  -4.13  -285.333787    2             
iter:  11  23:08:50  -7.45  -4.29  -285.333786    2             
iter:  12  23:08:56  -8.10  -4.35  -285.333786    3             

Converged after 12 iterations.

Dipole moment: (-0.593595, 1.590637, -0.835947) |e|*Ang

Energy contributions relative to reference atoms: (reference = -42004.487119)

Kinetic:       +301.797724
Potential:     -209.342621
External:        +0.000000
XC:            -375.942835
Entropy (-ST):   -0.002691
Local:           -1.844708
--------------------------
Free energy:   -285.335131
Extrapolated:  -285.333786

Fermi level: 0.34555

Showing only first 2 kpts
 Kpt  Band  Eigenvalues  Occupancy
  0    78     -0.38830    0.22222
  0    79     -0.24159    0.22222
  0    80      0.03457    0.22222
  0    81      0.67729    0.00000

  1    78     -0.42689    0.44444
  1    79     -0.31381    0.44444
  1    80      0.33405    0.33756
  1    81      1.11543    0.00000


No gap

Forces in eV/Ang:
  0 Li   -0.00013    0.00005   -0.04400
  1 Li   -0.00006    0.00005   -0.04349
  2 Li   -0.00012   -0.00006   -0.04418
  3 Li   -0.00007   -0.00006   -0.04366
  4 Li    0.00077   -0.00052    0.03426
  5 Li   -0.00079   -0.00048    0.03420
  6 Li    0.00077    0.00050    0.03442
  7 Li   -0.00079    0.00052    0.03435
  8 Li   -0.00005   -0.00010   -0.03030
  9 Li   -0.00015   -0.00010   -0.03052
 10 Li    0.00004   -0.00002   -0.03214
 11 Li   -0.00024   -0.00002   -0.03236
 12 Li    0.00025   -0.00014   -0.00298
 13 Li   -0.00029    0.00010   -0.00303
 14 Li    0.00024    0.00007   -0.00551
 15 Li   -0.00029   -0.00018   -0.00576
 16 Li   -0.00012   -0.00406   -0.04303
 17 Li    0.00016   -0.00405   -0.04330
 18 Li   -0.00132    0.00374   -0.04249
 19 Li    0.00136    0.00373   -0.04273
 20 Li    0.00071   -0.00082   -0.01604
 21 Li   -0.00055    0.00145   -0.01814
 22 Li    0.00059    0.00225   -0.02874
 23 Li   -0.00056    0.00037   -0.03243
 24 Li   -0.00191    0.00006   -0.00717
 25 Li    0.00151   -0.00003   -0.00574
 26 Li   -0.00655    0.00109   -0.01985
 27 Li    0.00600    0.00113   -0.01872
 28 Li    0.00039   -0.00289    0.02160
 29 Li   -0.00096   -0.01658   -0.03730
 30 Li   -0.00011    0.01893   -0.04345
 31 Li   -0.00041    0.04652   -0.03073
 32 Li    0.00289   -0.03264   -0.01625
 33 Li    0.01124   -0.03880   -0.01914
 34 Li   -0.15638   -0.06230   -0.05243
 35 Li    0.15748   -0.05870   -0.05667
 36 Li    0.00219   -0.03919    0.00396
 37 Li   -0.00200    0.01796    0.01199
 38 Li    0.00427    0.02906   -0.01740
 39 Li    0.00125    0.00814   -0.03637
 40 Li   -0.03727   -0.00377   -0.01686
 41 Li    0.04245   -0.00884   -0.00918
 42 Li    0.02783   -0.00845    0.02374
 43 Li   -0.02402   -0.01139    0.01678
 44 Li    0.00309   -0.02231    0.00363
 45 Li   -0.00839    0.02032    0.02163
 46 Li    0.00992   -0.00682    0.05108
 47 Li   -0.00001   -0.09345   -0.01379
 48 Li   -0.00830    0.01300    0.01038
 49 Li    0.00353    0.01679    0.01767
 50 Li   -0.00124    0.01862    0.01514
 51 Li    0.01802    0.02734    0.02579
 52 Li    0.00253    0.06762    0.01749
 53 Li   -0.00002   -0.05690   -0.01598
 54 Li   -0.00037   -0.08796   -0.00594
 55 Li    0.00233    0.06250   -0.04742
 56 Li    0.00558    0.00257    0.01502
 57 Li   -0.00028    0.00068    0.01950
 58 Li    0.01132   -0.00056   -0.01880
 59 Li   -0.00568    0.00533   -0.00478
 60 N     0.00328    0.00001   -0.00216
 61 N    -0.00260    0.00092   -0.00329
 62 N     0.00327   -0.00106    0.00252
 63 N    -0.00267    0.00046    0.00070
 64 N     0.00150   -0.00028    0.02413
 65 N    -0.00127   -0.00028    0.02346
 66 N     0.00281   -0.00131    0.04742
 67 N    -0.00255   -0.00130    0.04679
 68 N     0.00436   -0.01321   -0.00488
 69 N    -0.00049    0.03781   -0.01225
 70 N     0.00213    0.05215    0.12871
 71 N    -0.00090    0.02103    0.13291
 72 N    -0.01129   -0.00471    0.00630
 73 N    -0.00416    0.00154    0.01000
 74 N     0.00119   -0.01791   -0.01488
 75 N     0.00590   -0.01620   -0.01225
 76 N    -0.00909    0.05110   -0.01598
 77 N     0.00246   -0.00052    0.00964
 78 N    -0.01834    0.02717   -0.00667
 79 N     0.00668    0.05242   -0.03242
 80 Li   -0.01626    0.00211   -0.01489

System changes: positions 

Initializing position-dependent things.

Density initialized from wave functions
     .----------------.  
    /|                |  
   / |                |  
  /  |                |  
 *   |                |  
 |   |                |  
 |   |                |  
 |   |                |  
 |   |                |  
 |   Li      Li Li    |  
 |   |   N            |  
 |  Li  Li Li   NLi   |  
 |   | N              |  
 |   |Li Li Li Li   Li|  
 |   N        N       |  
 |   | Li Li Li LiLi Li  
 |   |   Li N       N |  
 |Li | Li Li  Li      |  
 |   |          Li    |  
 |   |  Li Li    Li Li|  
 |   | N      LiN     |  
 |   |Li Li    Li Li  |  
 |   N     Li N     Li|  
 |   | Li   Li  Li   Li  
 |   |   LiN      LiN |  
 |   Li   Li  Li   Li |  
 |   | LiN      LiN   |  
 |   |     Li       Li|  
 |   LiNLi    LiNLi   |  
 |   |   Li       Li  |  
 |   NLi   Li NLi   Li|  
 |   |                |  
 |   |   Li       Li  |  
 |   |                |  
 |   |                |  
 |   |                |  
 |   .----------------.  
 |  /                /   
 | /                /    
 |/                /     
 *----------------*      

Positions:
   0 Li     3.435275    0.000000    6.598843    ( 0.0000,  0.0000,  0.0000)
   1 Li     6.870825    0.000000    6.599421    ( 0.0000,  0.0000,  0.0000)
   2 Li     3.435275    3.658360    6.598843    ( 0.0000,  0.0000,  0.0000)
   3 Li     6.870825    3.658360    6.599421    ( 0.0000,  0.0000,  0.0000)
   4 Li     1.718187    1.829180    7.583766    ( 0.0000,  0.0000,  0.0000)
   5 Li     5.152363    1.829180    7.583766    ( 0.0000,  0.0000,  0.0000)
   6 Li     1.718187    5.487540    7.583766    ( 0.0000,  0.0000,  0.0000)
   7 Li     5.152363    5.487540    7.583766    ( 0.0000,  0.0000,  0.0000)
   8 Li     3.435275    0.000000    8.718815    ( 0.0000,  0.0000,  0.0000)
   9 Li     6.870825    0.000000    8.718236    ( 0.0000,  0.0000,  0.0000)
  10 Li     3.435275    3.658360    8.718815    ( 0.0000,  0.0000,  0.0000)
  11 Li     6.870825    3.658360    8.718236    ( 0.0000,  0.0000,  0.0000)
  12 Li     1.717500    0.000000    9.900144    ( 0.0000,  0.0000,  0.0000)
  13 Li     5.153050    0.000000    9.900144    ( 0.0000,  0.0000,  0.0000)
  14 Li     1.717500    3.658360    9.900144    ( 0.0000,  0.0000,  0.0000)
  15 Li     5.153050    3.658360    9.900144    ( 0.0000,  0.0000,  0.0000)
  16 Li     3.435275    1.829180   10.960564    ( 0.0000,  0.0000,  0.0000)
  17 Li     6.870825    1.829180   10.960853    ( 0.0000,  0.0000,  0.0000)
  18 Li     3.435275    5.487540   10.960564    ( 0.0000,  0.0000,  0.0000)
  19 Li     6.870825    5.487540   10.960853    ( 0.0000,  0.0000,  0.0000)
  20 Li     1.717569    0.000000   12.007100    ( 0.0000,  0.0000,  0.0000)
  21 Li     5.153050    0.000000   12.007100    ( 0.0000,  0.0000,  0.0000)
  22 Li     1.717569    3.658360   12.007100    ( 0.0000,  0.0000,  0.0000)
  23 Li     5.153050    3.658360   12.007100    ( 0.0000,  0.0000,  0.0000)
  24 Li     3.435344    0.000000   13.180330    ( 0.0000,  0.0000,  0.0000)
  25 Li     6.870894    0.000000   13.180909    ( 0.0000,  0.0000,  0.0000)
  26 Li     3.435344    3.658360   13.180330    ( 0.0000,  0.0000,  0.0000)
  27 Li     6.870894    3.658360   13.180909    ( 0.0000,  0.0000,  0.0000)
  28 Li     1.718462    1.829180   14.234386    ( 0.0000,  0.0000,  0.0000)
  29 Li     5.152226    1.829180   14.234386    ( 0.0000,  0.0000,  0.0000)
  30 Li     1.718462    5.487540   14.234386    ( 0.0000,  0.0000,  0.0000)
  31 Li     5.152226    5.487540   14.234386    ( 0.0000,  0.0000,  0.0000)
  32 Li     3.435344    0.000000   15.285550    ( 0.0000,  0.0000,  0.0000)
  33 Li     6.870894    0.000000   15.285260    ( 0.0000,  0.0000,  0.0000)
  34 Li     3.435344    3.658360   15.285550    ( 0.0000,  0.0000,  0.0000)
  35 Li     6.870894    3.658360   15.285260    ( 0.0000,  0.0000,  0.0000)
  36 Li     1.718530   -0.034716   16.433721    ( 0.0000,  0.0000,  0.0000)
  37 Li     5.154108    0.046526   16.432140    ( 0.0000,  0.0000,  0.0000)
  38 Li     1.717929    3.747491   16.500680    ( 0.0000,  0.0000,  0.0000)
  39 Li     5.153406    3.688540   16.399602    ( 0.0000,  0.0000,  0.0000)
  40 Li     3.332148    1.818377   17.494856    ( 0.0000,  0.0000,  0.0000)
  41 Li     6.974178    1.817768   17.488589    ( 0.0000,  0.0000,  0.0000)
  42 Li     3.522263    5.483087   17.541794    ( 0.0000,  0.0000,  0.0000)
  43 Li     6.785181    5.482251   17.547758    ( 0.0000,  0.0000,  0.0000)
  44 Li     1.720488   -0.163608   18.539654    ( 0.0000,  0.0000,  0.0000)
  45 Li     5.157703    0.044347   18.531723    ( 0.0000,  0.0000,  0.0000)
  46 Li     1.718012    3.664148   18.627529    ( 0.0000,  0.0000,  0.0000)
  47 Li     5.153590    3.420146   18.400759    ( 0.0000,  0.0000,  0.0000)
  48 Li     3.450912    0.071161   19.705621    ( 0.0000,  0.0000,  0.0000)
  49 Li     6.864115    0.074955   19.707176    ( 0.0000,  0.0000,  0.0000)
  50 Li     3.531306    3.706134   19.895270    ( 0.0000,  0.0000,  0.0000)
  51 Li     6.778228    3.691531   19.893955    ( 0.0000,  0.0000,  0.0000)
  52 Li     1.726016    1.772586   20.684894    ( 0.0000,  0.0000,  0.0000)
  53 Li     5.151992    1.850647   21.217576    ( 0.0000,  0.0000,  0.0000)
  54 Li     1.717579    5.456223   20.847546    ( 0.0000,  0.0000,  0.0000)
  55 Li     5.158437    5.522590   20.929307    ( 0.0000,  0.0000,  0.0000)
  56 Li     6.925220   -0.061264   21.861570    ( 0.0000,  0.0000,  0.0000)
  57 Li     3.388765   -0.066014   21.859636    ( 0.0000,  0.0000,  0.0000)
  58 Li     7.161580    3.537981   22.047059    ( 0.0000,  0.0000,  0.0000)
  59 Li     3.153242    3.540991   22.048100    ( 0.0000,  0.0000,  0.0000)
  60 N      1.719355    0.000000    7.667940    ( 0.0000,  0.0000,  0.0000)
  61 N      5.151126    0.000000    7.667940    ( 0.0000,  0.0000,  0.0000)
  62 N      1.719355    3.658360    7.667940    ( 0.0000,  0.0000,  0.0000)
  63 N      5.151126    3.658360    7.667940    ( 0.0000,  0.0000,  0.0000)
  64 N      3.435275    0.000000   10.956225    ( 0.0000,  0.0000,  0.0000)
  65 N      6.870825    0.000000   10.956515    ( 0.0000,  0.0000,  0.0000)
  66 N      3.435275    3.658360   10.956225    ( 0.0000,  0.0000,  0.0000)
  67 N      6.870825    3.658360   10.956515    ( 0.0000,  0.0000,  0.0000)
  68 N      1.719424    0.000000   14.234965    ( 0.0000,  0.0000,  0.0000)
  69 N      5.151195    0.000000   14.234965    ( 0.0000,  0.0000,  0.0000)
  70 N      1.719424    3.658360   14.234965    ( 0.0000,  0.0000,  0.0000)
  71 N      5.151195    3.658360   14.234965    ( 0.0000,  0.0000,  0.0000)
  72 N      3.438274   -0.006606   17.474109    ( 0.0000,  0.0000,  0.0000)
  73 N      6.874327   -0.007703   17.473261    ( 0.0000,  0.0000,  0.0000)
  74 N      3.450650    3.652367   17.530981    ( 0.0000,  0.0000,  0.0000)
  75 N      6.858546    3.651039   17.532225    ( 0.0000,  0.0000,  0.0000)
  76 N      1.724830   -0.048368   20.694979    ( 0.0000,  0.0000,  0.0000)
  77 N      5.154976    0.052211   20.709130    ( 0.0000,  0.0000,  0.0000)
  78 N      1.724534    3.609123   20.718457    ( 0.0000,  0.0000,  0.0000)
  79 N      5.153676    3.717375   21.479421    ( 0.0000,  0.0000,  0.0000)
  80 Li     5.165242    4.390145   23.272342    ( 0.0000,  0.0000,  0.0000)

Unit cell:
           periodic     x           y           z      points  spacing
  1. axis:    yes    6.871100    0.000000    0.000000    35     0.1963
  2. axis:    yes    0.000000    7.316720    0.000000    36     0.2032
  3. axis:    yes    0.000000    0.000000   28.925800   144     0.2009

  Lengths:   6.871100   7.316720  28.925800
  Angles:   90.000000  90.000000  90.000000

Effective grid spacing dv^(1/3) = 0.2001

                     log10-error:    total        iterations:
           time      wfs    density  energy       fermi  poisson
iter:   1  23:09:06  -4.57         -285.334922    3             
iter:   2  23:09:12  -5.76  -3.68  -285.334930    2             
iter:   3  23:09:19  -5.82  -3.70  -285.334898    3             
iter:   4  23:09:26  -7.33  -3.96  -285.334892    2             
iter:   5  23:09:32  -6.57  -3.98  -285.334888    3             
iter:   6  23:09:38  -7.01  -4.09  -285.334883    2             
iter:   7  23:09:45  -8.24  -4.44  -285.334883    2             

Converged after 7 iterations.

Dipole moment: (-0.590433, 1.523882, -0.837703) |e|*Ang

Energy contributions relative to reference atoms: (reference = -42004.487119)

Kinetic:       +301.789522
Potential:     -209.337737
External:        +0.000000
XC:            -375.940780
Entropy (-ST):   -0.002690
Local:           -1.844543
--------------------------
Free energy:   -285.336228
Extrapolated:  -285.334883

Fermi level: 0.34639

Showing only first 2 kpts
 Kpt  Band  Eigenvalues  Occupancy
  0    78     -0.38920    0.22222
  0    79     -0.24206    0.22222
  0    80      0.03521    0.22222
  0    81      0.67726    0.00000

  1    78     -0.42756    0.44444
  1    79     -0.31436    0.44444
  1    80      0.33489    0.33754
  1    81      1.11553    0.00000


No gap

Forces in eV/Ang:
  0 Li   -0.00014    0.00006   -0.04411
  1 Li   -0.00006    0.00006   -0.04360
  2 Li   -0.00013   -0.00007   -0.04427
  3 Li   -0.00007   -0.00007   -0.04376
  4 Li    0.00077   -0.00052    0.03419
  5 Li   -0.00079   -0.00047    0.03412
  6 Li    0.00077    0.00050    0.03432
  7 Li   -0.00079    0.00051    0.03425
  8 Li   -0.00009   -0.00008   -0.03035
  9 Li   -0.00011   -0.00007   -0.03056
 10 Li    0.00001   -0.00005   -0.03216
 11 Li   -0.00022   -0.00005   -0.03238
 12 Li    0.00024   -0.00013   -0.00299
 13 Li   -0.00029    0.00013   -0.00323
 14 Li    0.00024    0.00006   -0.00552
 15 Li   -0.00029   -0.00021   -0.00592
 16 Li   -0.00022   -0.00402   -0.04333
 17 Li    0.00027   -0.00401   -0.04358
 18 Li   -0.00148    0.00370   -0.04258
 19 Li    0.00152    0.00369   -0.04282
 20 Li    0.00069   -0.00100   -0.01635
 21 Li   -0.00054    0.00137   -0.01821
 22 Li    0.00058    0.00247   -0.02892
 23 Li   -0.00054    0.00050   -0.03237
 24 Li   -0.00185   -0.00025   -0.00724
 25 Li    0.00141   -0.00033   -0.00581
 26 Li   -0.00644    0.00142   -0.01976
 27 Li    0.00594    0.00145   -0.01859
 28 Li    0.00035   -0.00251    0.02185
 29 Li   -0.00090   -0.01627   -0.03690
 30 Li   -0.00012    0.01838   -0.04491
 31 Li   -0.00039    0.04665   -0.02961
 32 Li    0.00573   -0.03396   -0.01570
 33 Li    0.00551   -0.03971   -0.01927
 34 Li   -0.15366   -0.06247   -0.05215
 35 Li    0.15728   -0.05921   -0.05623
 36 Li    0.00458   -0.04068    0.01076
 37 Li   -0.00119    0.01624    0.00494
 38 Li    0.00288    0.02971   -0.01849
 39 Li    0.00031    0.00942   -0.04976
 40 Li   -0.03836   -0.00279   -0.01428
 41 Li    0.04288   -0.00707   -0.00818
 42 Li    0.02610   -0.00880    0.02218
 43 Li   -0.02331   -0.01089    0.01546
 44 Li    0.00410   -0.01943    0.00398
 45 Li   -0.00809    0.02220    0.02002
 46 Li    0.01335   -0.00756    0.06029
 47 Li   -0.00033   -0.09882   -0.00507
 48 Li   -0.01186    0.01826    0.00718
 49 Li    0.00725    0.02116    0.01749
 50 Li   -0.01515    0.01716    0.01215
 51 Li    0.03314    0.02574    0.02575
 52 Li    0.00240    0.07089    0.01421
 53 Li   -0.00027   -0.07129   -0.01424
 54 Li   -0.00072   -0.09024   -0.00410
 55 Li    0.00280    0.07090   -0.03815
 56 Li   -0.00173    0.00477    0.01678
 57 Li    0.00663    0.00347    0.02339
 58 Li    0.02438    0.00206   -0.02092
 59 Li   -0.01452    0.00681   -0.00574
 60 N     0.00328   -0.00000   -0.00170
 61 N    -0.00259    0.00089   -0.00267
 62 N     0.00326   -0.00101    0.00295
 63 N    -0.00265    0.00053    0.00123
 64 N     0.00140    0.00007    0.02461
 65 N    -0.00115    0.00008    0.02397
 66 N     0.00285   -0.00171    0.04748
 67 N    -0.00261   -0.00170    0.04683
 68 N     0.00405   -0.01564   -0.00654
 69 N    -0.00061    0.03839   -0.00777
 70 N     0.00237    0.05444    0.12711
 71 N    -0.00065    0.02190    0.13545
 72 N    -0.01026   -0.00223    0.00659
 73 N    -0.00403    0.00349    0.01006
 74 N    -0.00394   -0.01823   -0.01147
 75 N     0.00874   -0.01687   -0.01038
 76 N    -0.01192    0.04640   -0.02598
 77 N     0.00339   -0.00368    0.00557
 78 N    -0.02104    0.01695   -0.02146
 79 N    -0.00102    0.05662   -0.02369
 80 Li   -0.01462    0.00808   -0.01052

System changes: positions 

Initializing position-dependent things.

Density initialized from wave functions
     .----------------.  
    /|                |  
   / |                |  
  /  |                |  
 *   |                |  
 |   |                |  
 |   |                |  
 |   |                |  
 |   |                |  
 |   Li      Li Li    |  
 |   |   N            |  
 |  Li  Li Li   NLi   |  
 |   | N              |  
 |   |Li Li Li Li   Li|  
 |   N       NN       |  
 |   | Li Li Li LiLi Li  
 |   |   Li N       N |  
 |Li | Li Li  Li      |  
 |   |          Li    |  
 |   |  Li Li    Li Li|  
 |   | N      LiN     |  
 |   |Li Li    Li Li  |  
 |   N     Li N     Li|  
 |   | Li   Li  Li   Li  
 |   |   LiN      LiN |  
 |   Li   Li  Li   Li |  
 |   | LiN      LiN   |  
 |   |     Li       Li|  
 |   LiNLi    LiNLi   |  
 |   |   Li       Li  |  
 |   NLi   Li NLi   Li|  
 |   |                |  
 |   |   Li       Li  |  
 |   |                |  
 |   |                |  
 |   |                |  
 |   .----------------.  
 |  /                /   
 | /                /    
 |/                /     
 *----------------*      

Positions:
   0 Li     3.435275    0.000000    6.598843    ( 0.0000,  0.0000,  0.0000)
   1 Li     6.870825    0.000000    6.599421    ( 0.0000,  0.0000,  0.0000)
   2 Li     3.435275    3.658360    6.598843    ( 0.0000,  0.0000,  0.0000)
   3 Li     6.870825    3.658360    6.599421    ( 0.0000,  0.0000,  0.0000)
   4 Li     1.718187    1.829180    7.583766    ( 0.0000,  0.0000,  0.0000)
   5 Li     5.152363    1.829180    7.583766    ( 0.0000,  0.0000,  0.0000)
   6 Li     1.718187    5.487540    7.583766    ( 0.0000,  0.0000,  0.0000)
   7 Li     5.152363    5.487540    7.583766    ( 0.0000,  0.0000,  0.0000)
   8 Li     3.435275    0.000000    8.718815    ( 0.0000,  0.0000,  0.0000)
   9 Li     6.870825    0.000000    8.718236    ( 0.0000,  0.0000,  0.0000)
  10 Li     3.435275    3.658360    8.718815    ( 0.0000,  0.0000,  0.0000)
  11 Li     6.870825    3.658360    8.718236    ( 0.0000,  0.0000,  0.0000)
  12 Li     1.717500    0.000000    9.900144    ( 0.0000,  0.0000,  0.0000)
  13 Li     5.153050    0.000000    9.900144    ( 0.0000,  0.0000,  0.0000)
  14 Li     1.717500    3.658360    9.900144    ( 0.0000,  0.0000,  0.0000)
  15 Li     5.153050    3.658360    9.900144    ( 0.0000,  0.0000,  0.0000)
  16 Li     3.435275    1.829180   10.960564    ( 0.0000,  0.0000,  0.0000)
  17 Li     6.870825    1.829180   10.960853    ( 0.0000,  0.0000,  0.0000)
  18 Li     3.435275    5.487540   10.960564    ( 0.0000,  0.0000,  0.0000)
  19 Li     6.870825    5.487540   10.960853    ( 0.0000,  0.0000,  0.0000)
  20 Li     1.717569    0.000000   12.007100    ( 0.0000,  0.0000,  0.0000)
  21 Li     5.153050    0.000000   12.007100    ( 0.0000,  0.0000,  0.0000)
  22 Li     1.717569    3.658360   12.007100    ( 0.0000,  0.0000,  0.0000)
  23 Li     5.153050    3.658360   12.007100    ( 0.0000,  0.0000,  0.0000)
  24 Li     3.435344    0.000000   13.180330    ( 0.0000,  0.0000,  0.0000)
  25 Li     6.870894    0.000000   13.180909    ( 0.0000,  0.0000,  0.0000)
  26 Li     3.435344    3.658360   13.180330    ( 0.0000,  0.0000,  0.0000)
  27 Li     6.870894    3.658360   13.180909    ( 0.0000,  0.0000,  0.0000)
  28 Li     1.718462    1.829180   14.234386    ( 0.0000,  0.0000,  0.0000)
  29 Li     5.152226    1.829180   14.234386    ( 0.0000,  0.0000,  0.0000)
  30 Li     1.718462    5.487540   14.234386    ( 0.0000,  0.0000,  0.0000)
  31 Li     5.152226    5.487540   14.234386    ( 0.0000,  0.0000,  0.0000)
  32 Li     3.435344    0.000000   15.285550    ( 0.0000,  0.0000,  0.0000)
  33 Li     6.870894    0.000000   15.285260    ( 0.0000,  0.0000,  0.0000)
  34 Li     3.435344    3.658360   15.285550    ( 0.0000,  0.0000,  0.0000)
  35 Li     6.870894    3.658360   15.285260    ( 0.0000,  0.0000,  0.0000)
  36 Li     1.717294   -0.041549   16.431397    ( 0.0000,  0.0000,  0.0000)
  37 Li     5.153359    0.051108   16.437939    ( 0.0000,  0.0000,  0.0000)
  38 Li     1.719168    3.752561   16.499942    ( 0.0000,  0.0000,  0.0000)
  39 Li     5.154268    3.689232   16.400725    ( 0.0000,  0.0000,  0.0000)
  40 Li     3.324381    1.816387   17.490203    ( 0.0000,  0.0000,  0.0000)
  41 Li     6.983254    1.815358   17.486285    ( 0.0000,  0.0000,  0.0000)
  42 Li     3.528152    5.481280   17.547151    ( 0.0000,  0.0000,  0.0000)
  43 Li     6.780573    5.480172   17.551765    ( 0.0000,  0.0000,  0.0000)
  44 Li     1.719912   -0.168709   18.540304    ( 0.0000,  0.0000,  0.0000)
  45 Li     5.156398    0.047738   18.536158    ( 0.0000,  0.0000,  0.0000)
  46 Li     1.717767    3.662627   18.628595    ( 0.0000,  0.0000,  0.0000)
  47 Li     5.154287    3.403785   18.393369    ( 0.0000,  0.0000,  0.0000)
  48 Li     3.450508    0.071819   19.709177    ( 0.0000,  0.0000,  0.0000)
  49 Li     6.863429    0.076812   19.709797    ( 0.0000,  0.0000,  0.0000)
  50 Li     3.539176    3.710546   19.898813    ( 0.0000,  0.0000,  0.0000)
  51 Li     6.771600    3.697669   19.896721    ( 0.0000,  0.0000,  0.0000)
  52 Li     1.726562    1.778300   20.688830    ( 0.0000,  0.0000,  0.0000)
  53 Li     5.152196    1.854792   21.215413    ( 0.0000,  0.0000,  0.0000)
  54 Li     1.717753    5.456766   20.845025    ( 0.0000,  0.0000,  0.0000)
  55 Li     5.158708    5.525802   20.917114    ( 0.0000,  0.0000,  0.0000)
  56 Li     6.930085   -0.061895   21.863435    ( 0.0000,  0.0000,  0.0000)
  57 Li     3.384906   -0.067344   21.861131    ( 0.0000,  0.0000,  0.0000)
  58 Li     7.155542    3.536667   22.046529    ( 0.0000,  0.0000,  0.0000)
  59 Li     3.157370    3.541359   22.048226    ( 0.0000,  0.0000,  0.0000)
  60 N      1.719355    0.000000    7.667940    ( 0.0000,  0.0000,  0.0000)
  61 N      5.151126    0.000000    7.667940    ( 0.0000,  0.0000,  0.0000)
  62 N      1.719355    3.658360    7.667940    ( 0.0000,  0.0000,  0.0000)
  63 N      5.151126    3.658360    7.667940    ( 0.0000,  0.0000,  0.0000)
  64 N      3.435275    0.000000   10.956225    ( 0.0000,  0.0000,  0.0000)
  65 N      6.870825    0.000000   10.956515    ( 0.0000,  0.0000,  0.0000)
  66 N      3.435275    3.658360   10.956225    ( 0.0000,  0.0000,  0.0000)
  67 N      6.870825    3.658360   10.956515    ( 0.0000,  0.0000,  0.0000)
  68 N      1.719424    0.000000   14.234965    ( 0.0000,  0.0000,  0.0000)
  69 N      5.151195    0.000000   14.234965    ( 0.0000,  0.0000,  0.0000)
  70 N      1.719424    3.658360   14.234965    ( 0.0000,  0.0000,  0.0000)
  71 N      5.151195    3.658360   14.234965    ( 0.0000,  0.0000,  0.0000)
  72 N      3.436154   -0.008501   17.476040    ( 0.0000,  0.0000,  0.0000)
  73 N      6.873488   -0.009388   17.475515    ( 0.0000,  0.0000,  0.0000)
  74 N      3.451828    3.649999   17.528598    ( 0.0000,  0.0000,  0.0000)
  75 N      6.859734    3.648693   17.530145    ( 0.0000,  0.0000,  0.0000)
  76 N      1.724626   -0.043179   20.696172    ( 0.0000,  0.0000,  0.0000)
  77 N      5.154929    0.056196   20.713242    ( 0.0000,  0.0000,  0.0000)
  78 N      1.724972    3.614380   20.720854    ( 0.0000,  0.0000,  0.0000)
  79 N      5.156440    3.722937   21.474074    ( 0.0000,  0.0000,  0.0000)
  80 Li     5.161498    4.387896   23.266770    ( 0.0000,  0.0000,  0.0000)

Unit cell:
           periodic     x           y           z      points  spacing
  1. axis:    yes    6.871100    0.000000    0.000000    35     0.1963
  2. axis:    yes    0.000000    7.316720    0.000000    36     0.2032
  3. axis:    yes    0.000000    0.000000   28.925800   144     0.2009

  Lengths:   6.871100   7.316720  28.925800
  Angles:   90.000000  90.000000  90.000000

Effective grid spacing dv^(1/3) = 0.2001

                     log10-error:    total        iterations:
           time      wfs    density  energy       fermi  poisson
iter:   1  23:09:56  -3.39         -285.339459    4             
iter:   2  23:10:02  -4.57  -3.10  -285.339619    3             
iter:   3  23:10:09  -4.96  -3.14  -285.339238    3             
iter:   4  23:10:16  -6.07  -3.35  -285.339216    2             
iter:   5  23:10:22  -5.58  -3.37  -285.339141    3             
iter:   6  23:10:30  -5.94  -3.58  -285.339113    3             
iter:   7  23:10:36  -6.52  -3.76  -285.339092    3             
iter:   8  23:10:43  -6.74  -3.99  -285.339089    3             
iter:   9  23:10:49  -6.64  -4.13  -285.339091    3             
iter:  10  23:10:56  -7.10  -4.14  -285.339087    2             
iter:  11  23:11:03  -8.02  -4.42  -285.339087    2             

Converged after 11 iterations.

Dipole moment: (-0.621197, 1.182053, -0.837993) |e|*Ang

Energy contributions relative to reference atoms: (reference = -42004.487119)

Kinetic:       +301.708767
Potential:     -209.279618
External:        +0.000000
XC:            -375.922443
Entropy (-ST):   -0.002691
Local:           -1.844447
--------------------------
Free energy:   -285.340432
Extrapolated:  -285.339087

Fermi level: 0.34572

Showing only first 2 kpts
 Kpt  Band  Eigenvalues  Occupancy
  0    78     -0.38965    0.22222
  0    79     -0.24135    0.22222
  0    80      0.03489    0.22222
  0    81      0.67790    0.00000

  1    78     -0.42746    0.44444
  1    79     -0.31381    0.44444
  1    80      0.33422    0.33757
  1    81      1.11626    0.00000


No gap

Forces in eV/Ang:
  0 Li   -0.00014    0.00003   -0.04405
  1 Li   -0.00006    0.00003   -0.04354
  2 Li   -0.00013   -0.00005   -0.04420
  3 Li   -0.00007   -0.00005   -0.04369
  4 Li    0.00077   -0.00050    0.03424
  5 Li   -0.00079   -0.00046    0.03420
  6 Li    0.00077    0.00048    0.03437
  7 Li   -0.00079    0.00050    0.03432
  8 Li   -0.00007   -0.00010   -0.03041
  9 Li   -0.00013   -0.00010   -0.03062
 10 Li    0.00002   -0.00005   -0.03216
 11 Li   -0.00023   -0.00005   -0.03237
 12 Li    0.00024   -0.00012   -0.00313
 13 Li   -0.00029    0.00016   -0.00309
 14 Li    0.00024    0.00005   -0.00553
 15 Li   -0.00029   -0.00024   -0.00577
 16 Li    0.00018   -0.00390   -0.04309
 17 Li   -0.00013   -0.00389   -0.04335
 18 Li   -0.00125    0.00355   -0.04245
 19 Li    0.00129    0.00355   -0.04270
 20 Li    0.00065   -0.00094   -0.01706
 21 Li   -0.00058    0.00192   -0.01800
 22 Li    0.00062    0.00253   -0.02908
 23 Li   -0.00054    0.00022   -0.03179
 24 Li   -0.00063    0.00025   -0.00730
 25 Li    0.00005    0.00020   -0.00598
 26 Li   -0.00556    0.00105   -0.01932
 27 Li    0.00521    0.00105   -0.01822
 28 Li    0.00035   -0.00141    0.02359
 29 Li   -0.00080   -0.01531   -0.03645
 30 Li    0.00013    0.01655   -0.05009
 31 Li   -0.00057    0.04763   -0.02584
 32 Li    0.01524   -0.03789   -0.01341
 33 Li   -0.01357   -0.04176   -0.01836
 34 Li   -0.14578   -0.06477   -0.05155
 35 Li    0.15838   -0.06303   -0.05465
 36 Li    0.01037   -0.04640    0.02960
 37 Li    0.00144    0.00884   -0.01475
 38 Li   -0.00238    0.03231   -0.01607
 39 Li   -0.00275    0.01443   -0.07801
 40 Li   -0.03853   -0.00171   -0.00846
 41 Li    0.04068   -0.00042   -0.00700
 42 Li    0.02527   -0.01115    0.01564
 43 Li   -0.02567   -0.00862    0.01145
 44 Li    0.00430   -0.01133    0.00641
 45 Li   -0.00484    0.02536    0.00995
 46 Li    0.02091   -0.00789    0.06929
 47 Li    0.00139   -0.11206    0.02090
 48 Li   -0.02082    0.03494   -0.00290
 49 Li    0.01637    0.03469    0.01222
 50 Li   -0.04382    0.01487   -0.00078
 51 Li    0.06055    0.02276    0.01710
 52 Li    0.00136    0.05171    0.00370
 53 Li   -0.00021   -0.07621   -0.00510
 54 Li   -0.00232   -0.03683    0.00361
 55 Li    0.00505    0.07382   -0.00790
 56 Li   -0.02046    0.01013    0.01977
 57 Li    0.02255    0.01099    0.03084
 58 Li    0.06015    0.01246   -0.02323
 59 Li   -0.04261    0.01261   -0.01050
 60 N     0.00327    0.00015   -0.00212
 61 N    -0.00258    0.00096   -0.00321
 62 N     0.00326   -0.00098    0.00230
 63 N    -0.00259    0.00063    0.00045
 64 N     0.00109   -0.00038    0.02460
 65 N    -0.00087   -0.00037    0.02398
 66 N     0.00244   -0.00165    0.04627
 67 N    -0.00218   -0.00162    0.04567
 68 N     0.00280   -0.01709    0.00098
 69 N    -0.00135    0.04442   -0.00837
 70 N     0.00317    0.05698    0.12562
 71 N     0.00006    0.02202    0.13099
 72 N    -0.00164   -0.00090    0.00506
 73 N    -0.00510    0.00041    0.00841
 74 N    -0.00745   -0.00893   -0.00896
 75 N     0.00565   -0.00978   -0.00844
 76 N    -0.01234    0.00006   -0.01696
 77 N     0.00006   -0.01441   -0.01784
 78 N    -0.02052   -0.01065   -0.02923
 79 N    -0.01472    0.03103   -0.02686
 80 Li   -0.00619    0.02908    0.00097

System changes: positions 

Initializing position-dependent things.

Density initialized from wave functions
     .----------------.  
    /|                |  
   / |                |  
  /  |                |  
 *   |                |  
 |   |                |  
 |   |                |  
 |   |                |  
 |   |                |  
 |   Li      Li Li    |  
 |   |   N            |  
 |  Li  Li Li   NLi   |  
 |   | N              |  
 |   |Li Li Li Li   Li|  
 |   N       NN       |  
 |   | Li Li Li LiLi Li  
 |   |   Li N       N |  
 |Li | Li Li  Li      |  
 |   |          Li    |  
 |   |  Li Li    Li Li|  
 |   | N      LiN     |  
 |   |Li Li    Li Li  |  
 |   N     Li N     Li|  
 |   | Li   Li  Li   Li  
 |   |   LiN      LiN |  
 |   Li   Li  Li   Li |  
 |   | LiN      LiN   |  
 |   |     Li       Li|  
 |   LiNLi    LiNLi   |  
 |   |   Li       Li  |  
 |   NLi   Li NLi   Li|  
 |   |                |  
 |   |   Li       Li  |  
 |   |                |  
 |   |                |  
 |   |                |  
 |   .----------------.  
 |  /                /   
 | /                /    
 |/                /     
 *----------------*      

Positions:
   0 Li     3.435275    0.000000    6.598843    ( 0.0000,  0.0000,  0.0000)
   1 Li     6.870825    0.000000    6.599421    ( 0.0000,  0.0000,  0.0000)
   2 Li     3.435275    3.658360    6.598843    ( 0.0000,  0.0000,  0.0000)
   3 Li     6.870825    3.658360    6.599421    ( 0.0000,  0.0000,  0.0000)
   4 Li     1.718187    1.829180    7.583766    ( 0.0000,  0.0000,  0.0000)
   5 Li     5.152363    1.829180    7.583766    ( 0.0000,  0.0000,  0.0000)
   6 Li     1.718187    5.487540    7.583766    ( 0.0000,  0.0000,  0.0000)
   7 Li     5.152363    5.487540    7.583766    ( 0.0000,  0.0000,  0.0000)
   8 Li     3.435275    0.000000    8.718815    ( 0.0000,  0.0000,  0.0000)
   9 Li     6.870825    0.000000    8.718236    ( 0.0000,  0.0000,  0.0000)
  10 Li     3.435275    3.658360    8.718815    ( 0.0000,  0.0000,  0.0000)
  11 Li     6.870825    3.658360    8.718236    ( 0.0000,  0.0000,  0.0000)
  12 Li     1.717500    0.000000    9.900144    ( 0.0000,  0.0000,  0.0000)
  13 Li     5.153050    0.000000    9.900144    ( 0.0000,  0.0000,  0.0000)
  14 Li     1.717500    3.658360    9.900144    ( 0.0000,  0.0000,  0.0000)
  15 Li     5.153050    3.658360    9.900144    ( 0.0000,  0.0000,  0.0000)
  16 Li     3.435275    1.829180   10.960564    ( 0.0000,  0.0000,  0.0000)
  17 Li     6.870825    1.829180   10.960853    ( 0.0000,  0.0000,  0.0000)
  18 Li     3.435275    5.487540   10.960564    ( 0.0000,  0.0000,  0.0000)
  19 Li     6.870825    5.487540   10.960853    ( 0.0000,  0.0000,  0.0000)
  20 Li     1.717569    0.000000   12.007100    ( 0.0000,  0.0000,  0.0000)
  21 Li     5.153050    0.000000   12.007100    ( 0.0000,  0.0000,  0.0000)
  22 Li     1.717569    3.658360   12.007100    ( 0.0000,  0.0000,  0.0000)
  23 Li     5.153050    3.658360   12.007100    ( 0.0000,  0.0000,  0.0000)
  24 Li     3.435344    0.000000   13.180330    ( 0.0000,  0.0000,  0.0000)
  25 Li     6.870894    0.000000   13.180909    ( 0.0000,  0.0000,  0.0000)
  26 Li     3.435344    3.658360   13.180330    ( 0.0000,  0.0000,  0.0000)
  27 Li     6.870894    3.658360   13.180909    ( 0.0000,  0.0000,  0.0000)
  28 Li     1.718462    1.829180   14.234386    ( 0.0000,  0.0000,  0.0000)
  29 Li     5.152226    1.829180   14.234386    ( 0.0000,  0.0000,  0.0000)
  30 Li     1.718462    5.487540   14.234386    ( 0.0000,  0.0000,  0.0000)
  31 Li     5.152226    5.487540   14.234386    ( 0.0000,  0.0000,  0.0000)
  32 Li     3.435344    0.000000   15.285550    ( 0.0000,  0.0000,  0.0000)
  33 Li     6.870894    0.000000   15.285260    ( 0.0000,  0.0000,  0.0000)
  34 Li     3.435344    3.658360   15.285550    ( 0.0000,  0.0000,  0.0000)
  35 Li     6.870894    3.658360   15.285260    ( 0.0000,  0.0000,  0.0000)
  36 Li     1.716289   -0.050297   16.429746    ( 0.0000,  0.0000,  0.0000)
  37 Li     5.152592    0.056300   16.443770    ( 0.0000,  0.0000,  0.0000)
  38 Li     1.720449    3.759000   16.498563    ( 0.0000,  0.0000,  0.0000)
  39 Li     5.155110    3.690417   16.399560    ( 0.0000,  0.0000,  0.0000)
  40 Li     3.314917    1.814222   17.484939    ( 0.0000,  0.0000,  0.0000)
  41 Li     6.994196    1.812732   17.483595    ( 0.0000,  0.0000,  0.0000)
  42 Li     3.535273    5.479017   17.553396    ( 0.0000,  0.0000,  0.0000)
  43 Li     6.774820    5.477657   17.556424    ( 0.0000,  0.0000,  0.0000)
  44 Li     1.719453   -0.174582   18.541181    ( 0.0000,  0.0000,  0.0000)
  45 Li     5.154823    0.052128   18.541273    ( 0.0000,  0.0000,  0.0000)
  46 Li     1.718143    3.660782   18.632005    ( 0.0000,  0.0000,  0.0000)
  47 Li     5.155053    3.382865   18.386034    ( 0.0000,  0.0000,  0.0000)
  48 Li     3.449494    0.073524   19.712935    ( 0.0000,  0.0000,  0.0000)
  49 Li     6.863139    0.079802   19.713033    ( 0.0000,  0.0000,  0.0000)
  50 Li     3.546325    3.715743   19.902655    ( 0.0000,  0.0000,  0.0000)
  51 Li     6.766351    3.704964   19.900317    ( 0.0000,  0.0000,  0.0000)
  52 Li     1.727194    1.786291   20.693247    ( 0.0000,  0.0000,  0.0000)
  53 Li     5.152404    1.856629   21.212841    ( 0.0000,  0.0000,  0.0000)
  54 Li     1.717870    5.455464   20.842436    ( 0.0000,  0.0000,  0.0000)
  55 Li     5.159145    5.531676   20.903642    ( 0.0000,  0.0000,  0.0000)
  56 Li     6.934724   -0.062272   21.866043    ( 0.0000,  0.0000,  0.0000)
  57 Li     3.381427   -0.068449   21.863675    ( 0.0000,  0.0000,  0.0000)
  58 Li     7.150891    3.535610   22.045176    ( 0.0000,  0.0000,  0.0000)
  59 Li     3.160523    3.542123   22.048030    ( 0.0000,  0.0000,  0.0000)
  60 N      1.719355    0.000000    7.667940    ( 0.0000,  0.0000,  0.0000)
  61 N      5.151126    0.000000    7.667940    ( 0.0000,  0.0000,  0.0000)
  62 N      1.719355    3.658360    7.667940    ( 0.0000,  0.0000,  0.0000)
  63 N      5.151126    3.658360    7.667940    ( 0.0000,  0.0000,  0.0000)
  64 N      3.435275    0.000000   10.956225    ( 0.0000,  0.0000,  0.0000)
  65 N      6.870825    0.000000   10.956515    ( 0.0000,  0.0000,  0.0000)
  66 N      3.435275    3.658360   10.956225    ( 0.0000,  0.0000,  0.0000)
  67 N      6.870825    3.658360   10.956515    ( 0.0000,  0.0000,  0.0000)
  68 N      1.719424    0.000000   14.234965    ( 0.0000,  0.0000,  0.0000)
  69 N      5.151195    0.000000   14.234965    ( 0.0000,  0.0000,  0.0000)
  70 N      1.719424    3.658360   14.234965    ( 0.0000,  0.0000,  0.0000)
  71 N      5.151195    3.658360   14.234965    ( 0.0000,  0.0000,  0.0000)
  72 N      3.433780   -0.010574   17.478211    ( 0.0000,  0.0000,  0.0000)
  73 N      6.872447   -0.011141   17.478161    ( 0.0000,  0.0000,  0.0000)
  74 N      3.452922    3.647126   17.525616    ( 0.0000,  0.0000,  0.0000)
  75 N      6.861146    3.645840   17.527552    ( 0.0000,  0.0000,  0.0000)
  76 N      1.724042   -0.037258   20.697010    ( 0.0000,  0.0000,  0.0000)
  77 N      5.154878    0.059959   20.717127    ( 0.0000,  0.0000,  0.0000)
  78 N      1.724723    3.619970   20.722760    ( 0.0000,  0.0000,  0.0000)
  79 N      5.159094    3.729959   21.467151    ( 0.0000,  0.0000,  0.0000)
  80 Li     5.157260    4.386316   23.260825    ( 0.0000,  0.0000,  0.0000)

Unit cell:
           periodic     x           y           z      points  spacing
  1. axis:    yes    6.871100    0.000000    0.000000    35     0.1963
  2. axis:    yes    0.000000    7.316720    0.000000    36     0.2032
  3. axis:    yes    0.000000    0.000000   28.925800   144     0.2009

  Lengths:   6.871100   7.316720  28.925800
  Angles:   90.000000  90.000000  90.000000

Effective grid spacing dv^(1/3) = 0.2001

                     log10-error:    total        iterations:
           time      wfs    density  energy       fermi  poisson
iter:   1  23:11:14  -3.25         -285.343066    4             
iter:   2  23:11:21  -4.44  -3.06  -285.343330    3             
iter:   3  23:11:27  -4.94  -3.10  -285.342967    3             
iter:   4  23:11:34  -5.85  -3.29  -285.342964    2             
iter:   5  23:11:42  -5.64  -3.32  -285.342833    3             
iter:   6  23:11:48  -6.03  -3.60  -285.342842    3             
iter:   7  23:11:54  -6.26  -3.69  -285.342809    3             
iter:   8  23:12:00  -6.87  -3.96  -285.342802    3             
iter:   9  23:12:07  -6.72  -4.09  -285.342804    3             
iter:  10  23:12:13  -7.18  -4.13  -285.342801    3             
iter:  11  23:12:20  -7.44  -4.37  -285.342802    3             
iter:  12  23:12:27  -8.18  -4.47  -285.342801    3             

Converged after 12 iterations.

Dipole moment: (-0.672971, 0.800811, -0.836538) |e|*Ang

Energy contributions relative to reference atoms: (reference = -42004.487119)

Kinetic:       +301.604454
Potential:     -209.206655
External:        +0.000000
XC:            -375.895879
Entropy (-ST):   -0.002692
Local:           -1.843375
--------------------------
Free energy:   -285.344147
Extrapolated:  -285.342801

Fermi level: 0.34278

Showing only first 2 kpts
 Kpt  Band  Eigenvalues  Occupancy
  0    78     -0.38896    0.22222
  0    79     -0.23980    0.22222
  0    80      0.03268    0.22222
  0    81      0.67925    0.00000

  1    78     -0.42650    0.44444
  1    79     -0.31243    0.44444
  1    80      0.33127    0.33761
  1    81      1.11773    0.00000


No gap

Forces in eV/Ang:
  0 Li   -0.00014    0.00003   -0.04408
  1 Li   -0.00006    0.00003   -0.04356
  2 Li   -0.00013   -0.00005   -0.04422
  3 Li   -0.00007   -0.00005   -0.04371
  4 Li    0.00077   -0.00047    0.03416
  5 Li   -0.00079   -0.00044    0.03410
  6 Li    0.00077    0.00045    0.03427
  7 Li   -0.00079    0.00048    0.03419
  8 Li   -0.00012   -0.00010   -0.03042
  9 Li   -0.00008   -0.00010   -0.03063
 10 Li   -0.00002   -0.00007   -0.03208
 11 Li   -0.00019   -0.00006   -0.03229
 12 Li    0.00024   -0.00016   -0.00316
 13 Li   -0.00029    0.00016   -0.00310
 14 Li    0.00025    0.00008   -0.00543
 15 Li   -0.00029   -0.00025   -0.00571
 16 Li    0.00034   -0.00375   -0.04334
 17 Li   -0.00029   -0.00375   -0.04359
 18 Li   -0.00130    0.00339   -0.04245
 19 Li    0.00134    0.00338   -0.04270
 20 Li    0.00059   -0.00135   -0.01788
 21 Li   -0.00061    0.00217   -0.01797
 22 Li    0.00065    0.00307   -0.02916
 23 Li   -0.00051    0.00032   -0.03113
 24 Li    0.00028    0.00011   -0.00733
 25 Li   -0.00096    0.00011   -0.00605
 26 Li   -0.00494    0.00137   -0.01910
 27 Li    0.00473    0.00132   -0.01796
 28 Li    0.00021   -0.00046    0.02657
 29 Li   -0.00057   -0.01462   -0.03647
 30 Li    0.00026    0.01465   -0.05708
 31 Li   -0.00064    0.04931   -0.02308
 32 Li    0.02392   -0.04197   -0.01121
 33 Li   -0.03123   -0.04361   -0.01652
 34 Li   -0.14141   -0.06816   -0.05188
 35 Li    0.16322   -0.06808   -0.05343
 36 Li    0.01314   -0.05141    0.04590
 37 Li    0.00397    0.00136   -0.03147
 38 Li   -0.00837    0.03346   -0.00321
 39 Li   -0.00505    0.01830   -0.08742
 40 Li   -0.04041   -0.00203   -0.00349
 41 Li    0.04018    0.00557   -0.00668
 42 Li    0.02414   -0.01253    0.00888
[...]
 |   |   Li       Li  |  
 |   |                |  
 |   |                |  
 |   |                |  
 |   .----------------.  
 |  /                /   
 | /                /    
 |/                /     
 *----------------*      

Positions:
   0 Li     3.435275    0.000000    6.598843    ( 0.0000,  0.0000,  0.0000)
   1 Li     6.870825    0.000000    6.599421    ( 0.0000,  0.0000,  0.0000)
   2 Li     3.435275    3.658360    6.598843    ( 0.0000,  0.0000,  0.0000)
   3 Li     6.870825    3.658360    6.599421    ( 0.0000,  0.0000,  0.0000)
   4 Li     1.718187    1.829180    7.583766    ( 0.0000,  0.0000,  0.0000)
   5 Li     5.152363    1.829180    7.583766    ( 0.0000,  0.0000,  0.0000)
   6 Li     1.718187    5.487540    7.583766    ( 0.0000,  0.0000,  0.0000)
   7 Li     5.152363    5.487540    7.583766    ( 0.0000,  0.0000,  0.0000)
   8 Li     3.435275    0.000000    8.718815    ( 0.0000,  0.0000,  0.0000)
   9 Li     6.870825    0.000000    8.718236    ( 0.0000,  0.0000,  0.0000)
  10 Li     3.435275    3.658360    8.718815    ( 0.0000,  0.0000,  0.0000)
  11 Li     6.870825    3.658360    8.718236    ( 0.0000,  0.0000,  0.0000)
  12 Li     1.717500    0.000000    9.900144    ( 0.0000,  0.0000,  0.0000)
  13 Li     5.153050    0.000000    9.900144    ( 0.0000,  0.0000,  0.0000)
  14 Li     1.717500    3.658360    9.900144    ( 0.0000,  0.0000,  0.0000)
  15 Li     5.153050    3.658360    9.900144    ( 0.0000,  0.0000,  0.0000)
  16 Li     3.435275    1.829180   10.960564    ( 0.0000,  0.0000,  0.0000)
  17 Li     6.870825    1.829180   10.960853    ( 0.0000,  0.0000,  0.0000)
  18 Li     3.435275    5.487540   10.960564    ( 0.0000,  0.0000,  0.0000)
  19 Li     6.870825    5.487540   10.960853    ( 0.0000,  0.0000,  0.0000)
  20 Li     1.717569    0.000000   12.007100    ( 0.0000,  0.0000,  0.0000)
  21 Li     5.153050    0.000000   12.007100    ( 0.0000,  0.0000,  0.0000)
  22 Li     1.717569    3.658360   12.007100    ( 0.0000,  0.0000,  0.0000)
  23 Li     5.153050    3.658360   12.007100    ( 0.0000,  0.0000,  0.0000)
  24 Li     3.435344    0.000000   13.180330    ( 0.0000,  0.0000,  0.0000)
  25 Li     6.870894    0.000000   13.180909    ( 0.0000,  0.0000,  0.0000)
  26 Li     3.435344    3.658360   13.180330    ( 0.0000,  0.0000,  0.0000)
  27 Li     6.870894    3.658360   13.180909    ( 0.0000,  0.0000,  0.0000)
  28 Li     1.718462    1.829180   14.234386    ( 0.0000,  0.0000,  0.0000)
  29 Li     5.152226    1.829180   14.234386    ( 0.0000,  0.0000,  0.0000)
  30 Li     1.718462    5.487540   14.234386    ( 0.0000,  0.0000,  0.0000)
  31 Li     5.152226    5.487540   14.234386    ( 0.0000,  0.0000,  0.0000)
  32 Li     3.435344    0.000000   15.285550    ( 0.0000,  0.0000,  0.0000)
  33 Li     6.870894    0.000000   15.285260    ( 0.0000,  0.0000,  0.0000)
  34 Li     3.435344    3.658360   15.285550    ( 0.0000,  0.0000,  0.0000)
  35 Li     6.870894    3.658360   15.285260    ( 0.0000,  0.0000,  0.0000)
  36 Li     1.718225   -0.289187   16.458992    ( 0.0000,  0.0000,  0.0000)
  37 Li     5.154017    0.051343   16.472298    ( 0.0000,  0.0000,  0.0000)
  38 Li     1.718133    3.836625   16.547421    ( 0.0000,  0.0000,  0.0000)
  39 Li     5.153896    3.822247   16.501216    ( 0.0000,  0.0000,  0.0000)
  40 Li     3.133046    1.746634   17.235279    ( 0.0000,  0.0000,  0.0000)
  41 Li     7.174910    1.743496   17.239320    ( 0.0000,  0.0000,  0.0000)
  42 Li     3.528404    5.403329   17.622265    ( 0.0000,  0.0000,  0.0000)
  43 Li     6.779989    5.401048   17.622683    ( 0.0000,  0.0000,  0.0000)
  44 Li     1.720898   -0.259685   18.610879    ( 0.0000,  0.0000,  0.0000)
  45 Li     5.156472   -0.189259   18.596991    ( 0.0000,  0.0000,  0.0000)
  46 Li     1.722089    3.479585   18.683903    ( 0.0000,  0.0000,  0.0000)
  47 Li     5.156374    2.649309   18.260788    ( 0.0000,  0.0000,  0.0000)
  48 Li     3.427056    0.592254   19.612106    ( 0.0000,  0.0000,  0.0000)
  49 Li     6.885729    0.586688   19.614776    ( 0.0000,  0.0000,  0.0000)
  50 Li     3.633791    3.845885   19.786366    ( 0.0000,  0.0000,  0.0000)
  51 Li     6.678425    3.847421   19.787029    ( 0.0000,  0.0000,  0.0000)
  52 Li     1.722557    2.001940   20.954009    ( 0.0000,  0.0000,  0.0000)
  53 Li     5.156234    2.102354   21.390966    ( 0.0000,  0.0000,  0.0000)
  54 Li     1.725076    5.668959   20.708086    ( 0.0000,  0.0000,  0.0000)
  55 Li     5.155372    5.812716   20.882549    ( 0.0000,  0.0000,  0.0000)
  56 Li     6.911925    0.072768   21.759465    ( 0.0000,  0.0000,  0.0000)
  57 Li     3.401149    0.075578   21.759657    ( 0.0000,  0.0000,  0.0000)
  58 Li     7.147530    3.904713   21.973032    ( 0.0000,  0.0000,  0.0000)
  59 Li     3.171802    3.904741   21.979316    ( 0.0000,  0.0000,  0.0000)
  60 N      1.719355    0.000000    7.667940    ( 0.0000,  0.0000,  0.0000)
  61 N      5.151126    0.000000    7.667940    ( 0.0000,  0.0000,  0.0000)
  62 N      1.719355    3.658360    7.667940    ( 0.0000,  0.0000,  0.0000)
  63 N      5.151126    3.658360    7.667940    ( 0.0000,  0.0000,  0.0000)
  64 N      3.435275    0.000000   10.956225    ( 0.0000,  0.0000,  0.0000)
  65 N      6.870825    0.000000   10.956515    ( 0.0000,  0.0000,  0.0000)
  66 N      3.435275    3.658360   10.956225    ( 0.0000,  0.0000,  0.0000)
  67 N      6.870825    3.658360   10.956515    ( 0.0000,  0.0000,  0.0000)
  68 N      1.719424    0.000000   14.234965    ( 0.0000,  0.0000,  0.0000)
  69 N      5.151195    0.000000   14.234965    ( 0.0000,  0.0000,  0.0000)
  70 N      1.719424    3.658360   14.234965    ( 0.0000,  0.0000,  0.0000)
  71 N      5.151195    3.658360   14.234965    ( 0.0000,  0.0000,  0.0000)
  72 N      3.434782   -0.063042   17.479191    ( 0.0000,  0.0000,  0.0000)
  73 N      6.874130   -0.063400   17.479033    ( 0.0000,  0.0000,  0.0000)
  74 N      3.460105    3.540244   17.541855    ( 0.0000,  0.0000,  0.0000)
  75 N      6.854371    3.540636   17.543014    ( 0.0000,  0.0000,  0.0000)
  76 N      1.722353    0.196612   20.655117    ( 0.0000,  0.0000,  0.0000)
  77 N      5.154562    0.379728   20.644603    ( 0.0000,  0.0000,  0.0000)
  78 N      1.725349    3.818062   20.672948    ( 0.0000,  0.0000,  0.0000)
  79 N      5.154604    4.026340   21.494308    ( 0.0000,  0.0000,  0.0000)
  80 Li     5.159305    4.688725   23.291626    ( 0.0000,  0.0000,  0.0000)

Unit cell:
           periodic     x           y           z      points  spacing
  1. axis:    yes    6.871100    0.000000    0.000000    35     0.1963
  2. axis:    yes    0.000000    7.316720    0.000000    36     0.2032
  3. axis:    yes    0.000000    0.000000   28.925800   144     0.2009

  Lengths:   6.871100   7.316720  28.925800
  Angles:   90.000000  90.000000  90.000000

Effective grid spacing dv^(1/3) = 0.2001

                     log10-error:    total        iterations:
           time      wfs    density  energy       fermi  poisson
iter:   1  00:06:08  -3.22         -285.546365    4             
iter:   2  00:06:14  -4.43  -3.19  -285.546793    3             
iter:   3  00:06:20  -5.15  -3.21  -285.546561    4             
iter:   4  00:06:26  -5.73  -3.43  -285.546543    3             
iter:   5  00:06:33  -6.05  -3.50  -285.546514    4             
iter:   6  00:06:39  -6.17  -3.72  -285.546530    4             
iter:   7  00:06:45  -6.67  -3.74  -285.546511    3             
iter:   8  00:06:52  -6.62  -3.99  -285.546508    3             
iter:   9  00:06:59  -6.97  -4.16  -285.546508    3             
iter:  10  00:07:05  -7.48  -4.20  -285.546506    3             
iter:  11  00:07:11  -7.98  -4.52  -285.546506    2             
iter:  12  00:07:18  -7.74  -4.53  -285.546507    3             
iter:  13  00:07:25  -8.21  -4.61  -285.546506    3             

Converged after 13 iterations.

Dipole moment: (-0.605969, -6.280261, -0.918721) |e|*Ang

Energy contributions relative to reference atoms: (reference = -42004.487119)

Kinetic:       +293.010528
Potential:     -203.167772
External:        +0.000000
XC:            -373.559549
Entropy (-ST):   -0.002579
Local:           -1.828424
--------------------------
Free energy:   -285.547796
Extrapolated:  -285.546506

Fermi level: 0.45450

Showing only first 2 kpts
 Kpt  Band  Eigenvalues  Occupancy
  0    78     -0.36916    0.22222
  0    79     -0.26313    0.22222
  0    80      0.11189    0.22222
  0    81      0.65149    0.00000

  1    78     -0.40989    0.44444
  1    79     -0.32840    0.44444
  1    80      0.44334    0.33474
  1    81      1.09278    0.00000


No gap

Forces in eV/Ang:
  0 Li   -0.00013   -0.00023   -0.04630
  1 Li   -0.00007   -0.00023   -0.04579
  2 Li   -0.00013    0.00017   -0.04633
  3 Li   -0.00007    0.00018   -0.04582
  4 Li    0.00077   -0.00024    0.03401
  5 Li   -0.00078   -0.00026    0.03402
  6 Li    0.00077    0.00026    0.03333
  7 Li   -0.00078    0.00024    0.03332
  8 Li   -0.00057    0.00031   -0.03300
  9 Li    0.00036    0.00031   -0.03321
 10 Li   -0.00059   -0.00099   -0.03400
 11 Li    0.00037   -0.00099   -0.03421
 12 Li    0.00025    0.00046   -0.00669
 13 Li   -0.00029    0.00084   -0.00551
 14 Li    0.00025   -0.00077   -0.00796
 15 Li   -0.00029   -0.00107   -0.00667
 16 Li    0.00353   -0.00202   -0.04783
 17 Li   -0.00348   -0.00202   -0.04806
 18 Li    0.00136    0.00147   -0.04057
 19 Li   -0.00132    0.00147   -0.04083
 20 Li    0.00065   -0.00390   -0.04132
 21 Li   -0.00058    0.00194   -0.01593
 22 Li    0.00064    0.00942   -0.04841
 23 Li   -0.00053    0.00869   -0.02257
 24 Li    0.02277   -0.00102   -0.00883
 25 Li   -0.02318   -0.00100   -0.00750
 26 Li    0.02250    0.00719   -0.01229
 27 Li   -0.02289    0.00715   -0.01108
 28 Li   -0.00044   -0.00981    0.03930
 29 Li   -0.00026    0.03063    0.03555
 30 Li    0.00015   -0.02654   -0.17450
 31 Li   -0.00059    0.04652   -0.03235
 32 Li    0.03098   -0.09700   -0.03664
 33 Li   -0.02373   -0.09643   -0.03930
 34 Li   -0.00341   -0.16279    0.01534
 35 Li    0.01275   -0.16610    0.01357
 36 Li    0.00041   -0.00361   -0.02936
 37 Li   -0.00409   -0.02568   -0.00548
 38 Li    0.00738   -0.00762   -0.03144
 39 Li    0.00679   -0.03374    0.00143
 40 Li    0.01064   -0.03394    0.01331
 41 Li   -0.00082    0.00070    0.00825
 42 Li    0.01844    0.00760    0.02614
 43 Li   -0.01430    0.03485    0.02542
 44 Li   -0.00257    0.02822   -0.02871
 45 Li   -0.00938    0.06999    0.00057
 46 Li   -0.00460   -0.04431    0.01047
 47 Li   -0.00134    0.02641    0.02941
 48 Li    0.01883    0.00649    0.03972
 49 Li   -0.02155    0.01734    0.03725
 50 Li    0.01498    0.00944   -0.01300
 51 Li   -0.00470    0.00560   -0.02484
 52 Li   -0.00243   -0.02930   -0.01464
 53 Li    0.00205    0.09502    0.02053
 54 Li   -0.00016    0.00058   -0.00201
 55 Li   -0.00319    0.03407   -0.02026
 56 Li    0.03075    0.06125   -0.00305
 57 Li   -0.02703    0.05698   -0.00625
 58 Li    0.00385    0.04015   -0.00418
 59 Li   -0.02751    0.03653   -0.02734
 60 N     0.00322    0.00127    0.00660
 61 N    -0.00272    0.00091    0.00749
 62 N     0.00326    0.00258    0.00738
 63 N    -0.00270    0.00349    0.00742
 64 N    -0.00818   -0.00082    0.04191
 65 N     0.00843   -0.00085    0.04131
 66 N    -0.00713   -0.00910    0.04716
 67 N     0.00739   -0.00905    0.04666
 68 N     0.00353   -0.09942    0.08048
 69 N    -0.00132    0.08905   -0.01552
 70 N     0.00409    0.11929    0.15945
 71 N    -0.00040    0.14724    0.06330
 72 N     0.00103   -0.01644   -0.01392
 73 N    -0.00588   -0.04654   -0.00758
 74 N     0.00745    0.07773    0.01519
 75 N    -0.00312    0.05208    0.01055
 76 N     0.00967   -0.05879    0.03717
 77 N    -0.00930   -0.08969   -0.00304
 78 N     0.01142    0.07860    0.08158
 79 N     0.00666   -0.01045    0.06799
 80 Li    0.00319   -0.01607   -0.01964

System changes: positions 

Initializing position-dependent things.

Density initialized from wave functions
     .----------------.  
    /|                |  
   / |                |  
  /  |                |  
 *   |                |  
 |   |                |  
 |   |                |  
 |   |                |  
 |   |          Li    |  
 |   |                |  
 |   |                |  
 |  Li  Li Li   NLi   |  
 |   | N       Li     |  
 Li  |Li Li Li    LiLi|  
 |   N       NN       |  
 Li  | Li Li Li      Li  
 |   |   LiN   Li   N |  
 |   | Li       Li    |  
 | Li|    Li          |  
 |   |  Li Li Li Li Li|  
 |   | N        N     |  
 |   |Li Li    Li Li  |  
 |   N     Li N     Li|  
 |   | Li   Li  Li   Li  
 |   |   LiN      LiN |  
 |   Li   Li  Li   Li |  
 |   | LiN      LiN   |  
 |   |     Li       Li|  
 |   LiNLi    LiNLi   |  
 |   |   Li       Li  |  
 |   NLi   Li NLi   Li|  
 |   |                |  
 |   |   Li       Li  |  
 |   |                |  
 |   |                |  
 |   |                |  
 |   .----------------.  
 |  /                /   
 | /                /    
 |/                /     
 *----------------*      

Positions:
   0 Li     3.435275    0.000000    6.598843    ( 0.0000,  0.0000,  0.0000)
   1 Li     6.870825    0.000000    6.599421    ( 0.0000,  0.0000,  0.0000)
   2 Li     3.435275    3.658360    6.598843    ( 0.0000,  0.0000,  0.0000)
   3 Li     6.870825    3.658360    6.599421    ( 0.0000,  0.0000,  0.0000)
   4 Li     1.718187    1.829180    7.583766    ( 0.0000,  0.0000,  0.0000)
   5 Li     5.152363    1.829180    7.583766    ( 0.0000,  0.0000,  0.0000)
   6 Li     1.718187    5.487540    7.583766    ( 0.0000,  0.0000,  0.0000)
   7 Li     5.152363    5.487540    7.583766    ( 0.0000,  0.0000,  0.0000)
   8 Li     3.435275    0.000000    8.718815    ( 0.0000,  0.0000,  0.0000)
   9 Li     6.870825    0.000000    8.718236    ( 0.0000,  0.0000,  0.0000)
  10 Li     3.435275    3.658360    8.718815    ( 0.0000,  0.0000,  0.0000)
  11 Li     6.870825    3.658360    8.718236    ( 0.0000,  0.0000,  0.0000)
  12 Li     1.717500    0.000000    9.900144    ( 0.0000,  0.0000,  0.0000)
  13 Li     5.153050    0.000000    9.900144    ( 0.0000,  0.0000,  0.0000)
  14 Li     1.717500    3.658360    9.900144    ( 0.0000,  0.0000,  0.0000)
  15 Li     5.153050    3.658360    9.900144    ( 0.0000,  0.0000,  0.0000)
  16 Li     3.435275    1.829180   10.960564    ( 0.0000,  0.0000,  0.0000)
  17 Li     6.870825    1.829180   10.960853    ( 0.0000,  0.0000,  0.0000)
  18 Li     3.435275    5.487540   10.960564    ( 0.0000,  0.0000,  0.0000)
  19 Li     6.870825    5.487540   10.960853    ( 0.0000,  0.0000,  0.0000)
  20 Li     1.717569    0.000000   12.007100    ( 0.0000,  0.0000,  0.0000)
  21 Li     5.153050    0.000000   12.007100    ( 0.0000,  0.0000,  0.0000)
  22 Li     1.717569    3.658360   12.007100    ( 0.0000,  0.0000,  0.0000)
  23 Li     5.153050    3.658360   12.007100    ( 0.0000,  0.0000,  0.0000)
  24 Li     3.435344    0.000000   13.180330    ( 0.0000,  0.0000,  0.0000)
  25 Li     6.870894    0.000000   13.180909    ( 0.0000,  0.0000,  0.0000)
  26 Li     3.435344    3.658360   13.180330    ( 0.0000,  0.0000,  0.0000)
  27 Li     6.870894    3.658360   13.180909    ( 0.0000,  0.0000,  0.0000)
  28 Li     1.718462    1.829180   14.234386    ( 0.0000,  0.0000,  0.0000)
  29 Li     5.152226    1.829180   14.234386    ( 0.0000,  0.0000,  0.0000)
  30 Li     1.718462    5.487540   14.234386    ( 0.0000,  0.0000,  0.0000)
  31 Li     5.152226    5.487540   14.234386    ( 0.0000,  0.0000,  0.0000)
  32 Li     3.435344    0.000000   15.285550    ( 0.0000,  0.0000,  0.0000)
  33 Li     6.870894    0.000000   15.285260    ( 0.0000,  0.0000,  0.0000)
  34 Li     3.435344    3.658360   15.285550    ( 0.0000,  0.0000,  0.0000)
  35 Li     6.870894    3.658360   15.285260    ( 0.0000,  0.0000,  0.0000)
  36 Li     1.718550   -0.293329   16.457515    ( 0.0000,  0.0000,  0.0000)
  37 Li     5.154402    0.050711   16.474683    ( 0.0000,  0.0000,  0.0000)
  38 Li     1.718766    3.834828   16.549938    ( 0.0000,  0.0000,  0.0000)
  39 Li     5.154265    3.813399   16.502496    ( 0.0000,  0.0000,  0.0000)
  40 Li     3.136805    1.746630   17.237724    ( 0.0000,  0.0000,  0.0000)
  41 Li     7.173658    1.744883   17.241525    ( 0.0000,  0.0000,  0.0000)
  42 Li     3.532435    5.404311   17.624776    ( 0.0000,  0.0000,  0.0000)
  43 Li     6.776124    5.403483   17.625640    ( 0.0000,  0.0000,  0.0000)
  44 Li     1.719792   -0.246522   18.611560    ( 0.0000,  0.0000,  0.0000)
  45 Li     5.156561   -0.174914   18.596654    ( 0.0000,  0.0000,  0.0000)
  46 Li     1.722134    3.485766   18.679974    ( 0.0000,  0.0000,  0.0000)
  47 Li     5.158209    2.665278   18.267243    ( 0.0000,  0.0000,  0.0000)
  48 Li     3.427054    0.580775   19.618469    ( 0.0000,  0.0000,  0.0000)
  49 Li     6.884541    0.576995   19.621453    ( 0.0000,  0.0000,  0.0000)
  50 Li     3.630084    3.847030   19.786559    ( 0.0000,  0.0000,  0.0000)
  51 Li     6.683093    3.848047   19.785456    ( 0.0000,  0.0000,  0.0000)
  52 Li     1.722697    2.000237   20.951311    ( 0.0000,  0.0000,  0.0000)
  53 Li     5.155223    2.103712   21.387978    ( 0.0000,  0.0000,  0.0000)
  54 Li     1.725235    5.669894   20.712328    ( 0.0000,  0.0000,  0.0000)
  55 Li     5.156103    5.806326   20.878823    ( 0.0000,  0.0000,  0.0000)
  56 Li     6.913529    0.072700   21.764498    ( 0.0000,  0.0000,  0.0000)
  57 Li     3.399083    0.074805   21.764050    ( 0.0000,  0.0000,  0.0000)
  58 Li     7.146694    3.903152   21.974769    ( 0.0000,  0.0000,  0.0000)
  59 Li     3.171353    3.901410   21.979422    ( 0.0000,  0.0000,  0.0000)
  60 N      1.719355    0.000000    7.667940    ( 0.0000,  0.0000,  0.0000)
  61 N      5.151126    0.000000    7.667940    ( 0.0000,  0.0000,  0.0000)
  62 N      1.719355    3.658360    7.667940    ( 0.0000,  0.0000,  0.0000)
  63 N      5.151126    3.658360    7.667940    ( 0.0000,  0.0000,  0.0000)
  64 N      3.435275    0.000000   10.956225    ( 0.0000,  0.0000,  0.0000)
  65 N      6.870825    0.000000   10.956515    ( 0.0000,  0.0000,  0.0000)
  66 N      3.435275    3.658360   10.956225    ( 0.0000,  0.0000,  0.0000)
  67 N      6.870825    3.658360   10.956515    ( 0.0000,  0.0000,  0.0000)
  68 N      1.719424    0.000000   14.234965    ( 0.0000,  0.0000,  0.0000)
  69 N      5.151195    0.000000   14.234965    ( 0.0000,  0.0000,  0.0000)
  70 N      1.719424    3.658360   14.234965    ( 0.0000,  0.0000,  0.0000)
  71 N      5.151195    3.658360   14.234965    ( 0.0000,  0.0000,  0.0000)
  72 N      3.434054   -0.062014   17.481770    ( 0.0000,  0.0000,  0.0000)
  73 N      6.874967   -0.062649   17.481176    ( 0.0000,  0.0000,  0.0000)
  74 N      3.460170    3.542994   17.542710    ( 0.0000,  0.0000,  0.0000)
  75 N      6.854886    3.542992   17.543618    ( 0.0000,  0.0000,  0.0000)
  76 N      1.722450    0.190324   20.660556    ( 0.0000,  0.0000,  0.0000)
  77 N      5.153306    0.375495   20.644036    ( 0.0000,  0.0000,  0.0000)
  78 N      1.726212    3.815276   20.675095    ( 0.0000,  0.0000,  0.0000)
  79 N      5.154814    4.020099   21.492796    ( 0.0000,  0.0000,  0.0000)
  80 Li     5.158381    4.680895   23.291899    ( 0.0000,  0.0000,  0.0000)

Unit cell:
           periodic     x           y           z      points  spacing
  1. axis:    yes    6.871100    0.000000    0.000000    35     0.1963
  2. axis:    yes    0.000000    7.316720    0.000000    36     0.2032
  3. axis:    yes    0.000000    0.000000   28.925800   144     0.2009

  Lengths:   6.871100   7.316720  28.925800
  Angles:   90.000000  90.000000  90.000000

Effective grid spacing dv^(1/3) = 0.2001

                     log10-error:    total        iterations:
           time      wfs    density  energy       fermi  poisson
iter:   1  00:07:36  -3.62         -285.549272    3             
iter:   2  00:07:43  -4.82  -3.07  -285.549146    3             
iter:   3  00:07:49  -4.99  -3.12  -285.548624    4             
iter:   4  00:07:55  -6.22  -3.36  -285.548582    3             
