
  ___ ___ ___ _ _ _  
 |   |   |_  | | | | 
 | | | | | . | | | | 
 |__ |  _|___|_____|  20.1.0
 |___|_|             

User:   jywang@lbnode02
Date:   Wed Jul  7 21:17:56 2021
Arch:   x86_64
Pid:    251052
Python: 3.7.7
gpaw:   /home/jywang/intel/intelpython3/lib/python3.7/site-packages/gpaw
_gpaw:  /home/jywang/intel/intelpython3/lib/python3.7/site-packages/
        _gpaw.cpython-37m-x86_64-linux-gnu.so
ase:    /home/jywang/intel/intelpython3/lib/python3.7/site-packages/ase (version 3.20.1)
numpy:  /home/jywang/intel/intelpython3/lib/python3.7/site-packages/numpy (version 1.17.5)
scipy:  /home/jywang/intel/intelpython3/lib/python3.7/site-packages/scipy (version 1.3.3)
libxc:  4.3.4
units:  Angstrom and eV
cores: 32
OMP_NUM_THREADS: 1

Input parameters:
  convergence: {eigenstates: 1e-08}
  kpts: [3 2 1]
  mode: {ecut: 450.00000000000006,
         gammacentered: False,
         name: pw}
  occupations: {name: fermi-dirac,
                width: 0.01}
  random: True
  xc: PBE

System changes: positions, numbers, cell, pbc, initial_charges, initial_magmoms 

Initialize ...

Li-setup:
  name: Lithium
  id: 830b4218f175192f93f959cfc0aad614
  Z: 3
  valence: 1
  core: 2
  charge: 0.0
  file: /home/jywang/gpaw_paws/gpaw-setups-0.9.20000/Li.PBE.gz
  compensation charges: gauss, rc=0.33, lmax=2
  cutoffs: 1.91(filt), 2.55(core),
  valence states:
                energy  radius
    2s(1.00)    -2.874   1.058
    2p(0.00)    -1.090   1.058
    *s          24.337   1.058

  Using partial waves for Li as LCAO basis

N-setup:
  name: Nitrogen
  id: f7500608b86eaa90eef8b1d9a670dc53
  Z: 7
  valence: 5
  core: 2
  charge: 0.0
  file: /home/jywang/gpaw_paws/gpaw-setups-0.9.20000/N.PBE.gz
  compensation charges: gauss, rc=0.18, lmax=2
  cutoffs: 1.11(filt), 0.96(core),
  valence states:
                energy  radius
    2s(2.00)   -18.583   0.603
    2p(3.00)    -7.089   0.529
    *s           8.629   0.603
    *p          20.123   0.529
    *d           0.000   0.577

  Using partial waves for N as LCAO basis

Reference energy: -75445.846558

Spin-paired calculation

Occupation numbers:
  Fermi-Dirac: width=0.0100 eV

Convergence criteria:
  Maximum total energy change: 0.0005 eV / electron
  Maximum integral of absolute density change: 0.0001 electrons
  Maximum integral of absolute eigenstate change: 1e-08 eV^2
  Maximum number of iterations: 333

Symmetries present (total): 1

  ( 1  0  0)
  ( 0  1  0)
  ( 0  0  1)

6 k-points: 3 x 2 x 1 Monkhorst-Pack grid
3 k-points in the irreducible part of the Brillouin zone
       k-points in crystal coordinates                weights
   0:     0.00000000    0.25000000    0.00000000          2/6
   1:     0.33333333   -0.25000000    0.00000000          2/6
   2:     0.33333333    0.25000000    0.00000000          2/6

Wave functions: Plane wave expansion
  Cutoff energy: 450.000 eV
  Number of coefficients (min, max): 57469, 57511
  Pulay-stress correction: 0.000000 eV/Ang^3 (de/decut=0.000000)
  Using FFTW library
  ScaLapack parameters: grid=1x1, blocksize=None
  Wavefunction extrapolation:
    Improved wavefunction reuse through dual PAW basis 

Eigensolver
   Davidson(niter=2, smin=None, normalize=True) 

Densities:
  Coarse grid: 36*60*150 grid
  Fine grid: 72*120*300 grid
  Total Charge: 0.000000 

Density mixing:
  Method: separate
  Backend: pulay
  Linear mixing parameter: 0.05
  Mixing with 5 old densities
  Damping of long wave oscillations: 50 

Hamiltonian:
  XC and Coulomb potentials evaluated on a 72*120*300 grid
  Using the PBE Exchange-Correlation functional
 

XC parameters: PBE with 2 nearest neighbor stencil

Memory estimate:
  Process memory now: 233.32 MiB
  Calculator: 654.67 MiB
    Density: 5.20 MiB
      Arrays: 2.04 MiB
      Localized functions: 2.38 MiB
      Mixer: 0.78 MiB
    Hamiltonian: 1.39 MiB
      Arrays: 1.33 MiB
      XC: 0.00 MiB
      Poisson: 0.00 MiB
      vbar: 0.06 MiB
    Wavefunctions: 648.08 MiB
      Arrays psit_nG: 468.61 MiB
      Eigensolver: 165.43 MiB
      Projections: 0.26 MiB
      Projectors: 0.70 MiB
      PW-descriptor: 13.08 MiB

Total number of cores used: 32
Domain decomposition: 2 x 2 x 8

Number of atoms: 145
Number of atomic orbitals: 580
Number of bands in calculation: 178
Number of valence electrons: 289
Bands to converge: occupied

... initialized

Initializing position-dependent things.

Density initialized from atomic densities
Creating initial wave functions:
  178 bands from LCAO basis set

        .-----------------.  
       /|                 |  
      / |                 |  
     /  |                 |  
    /   |                 |  
   /    |                 |  
  /     |                 |  
 *      |                 |  
 |      |                 |  
 |      |                 |  
 |      |                 |  
 |      |                 |  
 |      |                 |  
 |      |                 |  
 |      |                 |  
 |      |                 |  
 |      |                 |  
 |      |                 |  
 |      |                 |  
 |     Li Li    Li Li     |  
 |    NN|   Li NN    Li   |  
 |   Lii|     Lii         |  
 | Li   |   Li            |  
 |N  LiLi  N  LiLi        |  
 Li N N LiLi N N LiLi     |  
 | LiLiN|   LiLiN    Li   |  
 |Li  Li|  Li  Li         |  
 | LiLi |   LiLi          |  
 |N N  Lii N N  Lii       |  
 Li   NN| LiLi NN  LiLi   |  
 | LiLi |   LiLi          |  
 |Lii Li|  Lii Li         |  
 |N  LiLi  N  LiLi        |  
 |  N N LiLi N N LiLi     |  
 LiLi  N| LiLi  N    Li   |  
 |Li Lii|  Li Lii         |  
 | LiLi |   LiLi          |  
 |N    Li--N----Li--------.  
 Li N N/LiLi N N LiLi    /   
 | LiLi     LiLi        /    
 |Lii/     Lii         /     
 |N /      N          /      
 | /   Li       Li   /       
 Li       Li        /        
 *-----------------*         

Positions:
   0 Li     0.000000    0.149598    1.096542    ( 0.0000,  0.0000,  0.0000)
   1 Li     3.658360    0.149598    1.096542    ( 0.0000,  0.0000,  0.0000)
   2 Li     1.829180    1.983573    0.737424    ( 0.0000,  0.0000,  0.0000)
   3 Li     5.487540    1.983573    0.737424    ( 0.0000,  0.0000,  0.0000)
   4 Li     0.000000    3.817429    1.096542    ( 0.0000,  0.0000,  0.0000)
   5 Li     3.658360    3.817429    1.096542    ( 0.0000,  0.0000,  0.0000)
   6 Li     0.000000    6.100198    1.096542    ( 0.0000,  0.0000,  0.0000)
   7 Li     3.658360    6.100198    1.096542    ( 0.0000,  0.0000,  0.0000)
   8 Li     1.829180    7.934173    0.737424    ( 0.0000,  0.0000,  0.0000)
   9 Li     5.487540    7.934173    0.737424    ( 0.0000,  0.0000,  0.0000)
  10 Li     0.000000    9.768029    1.096542    ( 0.0000,  0.0000,  0.0000)
  11 Li     3.658360    9.768029    1.096542    ( 0.0000,  0.0000,  0.0000)
  12 Li     0.000000    0.985776    2.969801    ( 0.0000,  0.0000,  0.0000)
  13 Li     3.658360    0.985776    2.969801    ( 0.0000,  0.0000,  0.0000)
  14 Li     0.000000    2.981370    2.969801    ( 0.0000,  0.0000,  0.0000)
  15 Li     3.658360    2.981370    2.969801    ( 0.0000,  0.0000,  0.0000)
  16 Li     1.829180    4.958873    2.868371    ( 0.0000,  0.0000,  0.0000)
  17 Li     5.487540    4.958873    2.868371    ( 0.0000,  0.0000,  0.0000)
  18 Li     0.000000    6.936376    2.969801    ( 0.0000,  0.0000,  0.0000)
  19 Li     3.658360    6.936376    2.969801    ( 0.0000,  0.0000,  0.0000)
  20 Li     0.000000    8.931970    2.969801    ( 0.0000,  0.0000,  0.0000)
  21 Li     3.658360    8.931970    2.969801    ( 0.0000,  0.0000,  0.0000)
  22 Li     1.829180   10.909473    2.868371    ( 0.0000,  0.0000,  0.0000)
  23 Li     5.487540   10.909473    2.868371    ( 0.0000,  0.0000,  0.0000)
  24 Li     0.000000    0.025588    4.824480    ( 0.0000,  0.0000,  0.0000)
  25 Li     3.658360    0.025588    4.824480    ( 0.0000,  0.0000,  0.0000)
  26 Li     1.829180    1.983573    4.814733    ( 0.0000,  0.0000,  0.0000)
  27 Li     5.487540    1.983573    4.814733    ( 0.0000,  0.0000,  0.0000)
  28 Li     0.000000    3.941439    4.824480    ( 0.0000,  0.0000,  0.0000)
  29 Li     3.658360    3.941439    4.824480    ( 0.0000,  0.0000,  0.0000)
  30 Li     0.000000    5.976188    4.824480    ( 0.0000,  0.0000,  0.0000)
  31 Li     3.658360    5.976188    4.824480    ( 0.0000,  0.0000,  0.0000)
  32 Li     1.829180    7.934173    4.814733    ( 0.0000,  0.0000,  0.0000)
  33 Li     5.487540    7.934173    4.814733    ( 0.0000,  0.0000,  0.0000)
  34 Li     0.000000    9.892039    4.824480    ( 0.0000,  0.0000,  0.0000)
  35 Li     3.658360    9.892039    4.824480    ( 0.0000,  0.0000,  0.0000)
  36 Li     0.000000    0.973161    6.703527    ( 0.0000,  0.0000,  0.0000)
  37 Li     3.658360    0.973161    6.703527    ( 0.0000,  0.0000,  0.0000)
  38 Li     0.000000    2.993985    6.703527    ( 0.0000,  0.0000,  0.0000)
  39 Li     3.658360    2.993985    6.703527    ( 0.0000,  0.0000,  0.0000)
  40 Li     1.829180    4.958873    6.690124    ( 0.0000,  0.0000,  0.0000)
  41 Li     5.487540    4.958873    6.690124    ( 0.0000,  0.0000,  0.0000)
  42 Li     0.000000    6.923761    6.703527    ( 0.0000,  0.0000,  0.0000)
  43 Li     3.658360    6.923761    6.703527    ( 0.0000,  0.0000,  0.0000)
  44 Li     0.000000    8.944585    6.703527    ( 0.0000,  0.0000,  0.0000)
  45 Li     3.658360    8.944585    6.703527    ( 0.0000,  0.0000,  0.0000)
  46 Li     1.829180   10.909473    6.690124    ( 0.0000,  0.0000,  0.0000)
  47 Li     5.487540   10.909473    6.690124    ( 0.0000,  0.0000,  0.0000)
  48 Li     0.000000    0.023445    8.588056    ( 0.0000,  0.0000,  0.0000)
  49 Li     3.658360    0.023445    8.588056    ( 0.0000,  0.0000,  0.0000)
  50 Li     1.829180    1.983573    8.587447    ( 0.0000,  0.0000,  0.0000)
  51 Li     5.487540    1.983573    8.587447    ( 0.0000,  0.0000,  0.0000)
  52 Li     0.000000    3.943701    8.588056    ( 0.0000,  0.0000,  0.0000)
  53 Li     3.658360    3.943701    8.588056    ( 0.0000,  0.0000,  0.0000)
  54 Li     0.000000    5.974045    8.588056    ( 0.0000,  0.0000,  0.0000)
  55 Li     3.658360    5.974045    8.588056    ( 0.0000,  0.0000,  0.0000)
  56 Li     1.829180    7.934173    8.587447    ( 0.0000,  0.0000,  0.0000)
  57 Li     5.487540    7.934173    8.587447    ( 0.0000,  0.0000,  0.0000)
  58 Li     0.000000    9.894301    8.588056    ( 0.0000,  0.0000,  0.0000)
  59 Li     3.658360    9.894301    8.588056    ( 0.0000,  0.0000,  0.0000)
  60 Li     0.000000    0.973280   10.477458    ( 0.0000,  0.0000,  0.0000)
  61 Li     3.658360    0.973280   10.477458    ( 0.0000,  0.0000,  0.0000)
  62 Li     0.000000    2.993747   10.477458    ( 0.0000,  0.0000,  0.0000)
  63 Li     3.658360    2.993747   10.477458    ( 0.0000,  0.0000,  0.0000)
  64 Li     1.829180    4.958873   10.488728    ( 0.0000,  0.0000,  0.0000)
  65 Li     5.487540    4.958873   10.488728    ( 0.0000,  0.0000,  0.0000)
  66 Li     0.000000    6.923880   10.477458    ( 0.0000,  0.0000,  0.0000)
  67 Li     3.658360    6.923880   10.477458    ( 0.0000,  0.0000,  0.0000)
  68 Li     0.000000    8.944347   10.477458    ( 0.0000,  0.0000,  0.0000)
  69 Li     3.658360    8.944347   10.477458    ( 0.0000,  0.0000,  0.0000)
  70 Li     1.829180   10.909473   10.488728    ( 0.0000,  0.0000,  0.0000)
  71 Li     5.487540   10.909473   10.488728    ( 0.0000,  0.0000,  0.0000)
  72 Li     0.000000    0.024278   12.359551    ( 0.0000,  0.0000,  0.0000)
  73 Li     3.658360    0.024278   12.359551    ( 0.0000,  0.0000,  0.0000)
  74 Li     1.829180    1.983573   12.373562    ( 0.0000,  0.0000,  0.0000)
  75 Li     5.487540    1.983573   12.373562    ( 0.0000,  0.0000,  0.0000)
  76 Li     0.000000    3.942749   12.359551    ( 0.0000,  0.0000,  0.0000)
  77 Li     3.658360    3.942749   12.359551    ( 0.0000,  0.0000,  0.0000)
  78 Li     0.000000    5.974878   12.359551    ( 0.0000,  0.0000,  0.0000)
  79 Li     3.658360    5.974878   12.359551    ( 0.0000,  0.0000,  0.0000)
  80 Li     1.829180    7.934173   12.373562    ( 0.0000,  0.0000,  0.0000)
  81 Li     5.487540    7.934173   12.373562    ( 0.0000,  0.0000,  0.0000)
  82 Li     0.000000    9.893349   12.359551    ( 0.0000,  0.0000,  0.0000)
  83 Li     3.658360    9.893349   12.359551    ( 0.0000,  0.0000,  0.0000)
  84 Li     0.000000    0.986490   14.223977    ( 0.0000,  0.0000,  0.0000)
  85 Li     3.658360    0.986490   14.223977    ( 0.0000,  0.0000,  0.0000)
  86 Li     0.000000    2.980656   14.223977    ( 0.0000,  0.0000,  0.0000)
  87 Li     3.658360    2.980656   14.223977    ( 0.0000,  0.0000,  0.0000)
  88 Li     1.829180    4.958873   14.335459    ( 0.0000,  0.0000,  0.0000)
  89 Li     5.487540    4.958873   14.335459    ( 0.0000,  0.0000,  0.0000)
  90 Li     0.000000    6.937090   14.223977    ( 0.0000,  0.0000,  0.0000)
  91 Li     3.658360    6.937090   14.223977    ( 0.0000,  0.0000,  0.0000)
  92 Li     0.000000    8.931256   14.223977    ( 0.0000,  0.0000,  0.0000)
  93 Li     3.658360    8.931256   14.223977    ( 0.0000,  0.0000,  0.0000)
  94 Li     1.829180   10.909473   14.335459    ( 0.0000,  0.0000,  0.0000)
  95 Li     5.487540   10.909473   14.335459    ( 0.0000,  0.0000,  0.0000)
  96 Li     0.000000    0.150074   16.101196    ( 0.0000,  0.0000,  0.0000)
  97 Li     3.658360    0.150074   16.101196    ( 0.0000,  0.0000,  0.0000)
  98 Li     1.829180    1.983573   16.466405    ( 0.0000,  0.0000,  0.0000)
  99 Li     5.487540    1.983573   16.466405    ( 0.0000,  0.0000,  0.0000)
 100 Li     0.000000    3.816953   16.101196    ( 0.0000,  0.0000,  0.0000)
 101 Li     3.658360    3.816953   16.101196    ( 0.0000,  0.0000,  0.0000)
 102 Li     0.000000    6.100674   16.101196    ( 0.0000,  0.0000,  0.0000)
 103 Li     3.658360    6.100674   16.101196    ( 0.0000,  0.0000,  0.0000)
 104 Li     1.829180    7.934173   16.466405    ( 0.0000,  0.0000,  0.0000)
 105 Li     5.487540    7.934173   16.466405    ( 0.0000,  0.0000,  0.0000)
 106 Li     0.000000    9.767553   16.101196    ( 0.0000,  0.0000,  0.0000)
 107 Li     3.658360    9.767553   16.101196    ( 0.0000,  0.0000,  0.0000)
 108 N      0.000000    1.983573    1.228127    ( 0.0000,  0.0000,  0.0000)
 109 N      3.658360    1.983573    1.228127    ( 0.0000,  0.0000,  0.0000)
 110 N      0.000000    7.934173    1.228127    ( 0.0000,  0.0000,  0.0000)
 111 N      3.658360    7.934173    1.228127    ( 0.0000,  0.0000,  0.0000)
 112 N      0.000000    4.958873    2.852227    ( 0.0000,  0.0000,  0.0000)
 113 N      3.658360    4.958873    2.852227    ( 0.0000,  0.0000,  0.0000)
 114 N      0.000000   10.909473    2.852227    ( 0.0000,  0.0000,  0.0000)
 115 N      3.658360   10.909473    2.852227    ( 0.0000,  0.0000,  0.0000)
 116 N      0.000000    1.983573    4.859204    ( 0.0000,  0.0000,  0.0000)
 117 N      3.658360    1.983573    4.859204    ( 0.0000,  0.0000,  0.0000)
 118 N      0.000000    7.934173    4.859204    ( 0.0000,  0.0000,  0.0000)
 119 N      3.658360    7.934173    4.859204    ( 0.0000,  0.0000,  0.0000)
 120 N      0.000000    4.958873    6.693780    ( 0.0000,  0.0000,  0.0000)
 121 N      3.658360    4.958873    6.693780    ( 0.0000,  0.0000,  0.0000)
 122 N      0.000000   10.909473    6.693780    ( 0.0000,  0.0000,  0.0000)
 123 N      3.658360   10.909473    6.693780    ( 0.0000,  0.0000,  0.0000)
 124 N      0.000000    1.983573    8.581050    ( 0.0000,  0.0000,  0.0000)
 125 N      3.658360    1.983573    8.581050    ( 0.0000,  0.0000,  0.0000)
 126 N      0.000000    7.934173    8.581050    ( 0.0000,  0.0000,  0.0000)
 127 N      3.658360    7.934173    8.581050    ( 0.0000,  0.0000,  0.0000)
 128 N      0.000000    4.958873   10.496039    ( 0.0000,  0.0000,  0.0000)
 129 N      3.658360    4.958873   10.496039    ( 0.0000,  0.0000,  0.0000)
 130 N      0.000000   10.909473   10.496039    ( 0.0000,  0.0000,  0.0000)
 131 N      3.658360   10.909473   10.496039    ( 0.0000,  0.0000,  0.0000)
 132 N      0.000000    1.983573   12.339448    ( 0.0000,  0.0000,  0.0000)
 133 N      3.658360    1.983573   12.339448    ( 0.0000,  0.0000,  0.0000)
 134 N      0.000000    7.934173   12.339448    ( 0.0000,  0.0000,  0.0000)
 135 N      3.658360    7.934173   12.339448    ( 0.0000,  0.0000,  0.0000)
 136 N      0.000000    4.958873   14.348252    ( 0.0000,  0.0000,  0.0000)
 137 N      3.658360    4.958873   14.348252    ( 0.0000,  0.0000,  0.0000)
 138 N      0.000000   10.909473   14.348252    ( 0.0000,  0.0000,  0.0000)
 139 N      3.658360   10.909473   14.348252    ( 0.0000,  0.0000,  0.0000)
 140 N      0.000000    1.983573   15.978749    ( 0.0000,  0.0000,  0.0000)
 141 N      3.658360    1.983573   15.978749    ( 0.0000,  0.0000,  0.0000)
 142 N      0.000000    7.934173   15.978749    ( 0.0000,  0.0000,  0.0000)
 143 N      3.658360    7.934173   15.978749    ( 0.0000,  0.0000,  0.0000)
 144 Li     4.472711    6.997906   17.361914    ( 0.0000,  0.0000,  0.0000)

Unit cell:
           periodic     x           y           z      points  spacing
  1. axis:    yes    7.316720    0.000000    0.000000    36     0.2032
  2. axis:    yes    0.000000   11.901200    0.000000    60     0.1984
  3. axis:    yes    0.000000    0.000000   30.459499   150     0.2031

  Lengths:   7.316720  11.901200  30.459499
  Angles:   90.000000  90.000000  90.000000

Effective grid spacing dv^(1/3) = 0.2015

                     log10-error:    total        iterations:
           time      wfs    density  energy       fermi  poisson
iter:   1  21:18:34                -596.615532    3             
iter:   2  21:18:43  -0.96  -0.50  -570.851151    35            
iter:   3  21:18:53  -0.34  -0.55  -515.267013    34            
iter:   4  21:19:03  -0.85  -0.82  -508.824860    37            
iter:   5  21:19:14  -1.51  -0.98  -508.098216    35            
iter:   6  21:19:25  -1.54  -1.21  -506.232620    30            
iter:   7  21:19:35  -1.67  -1.53  -507.097209    36            
iter:   8  21:19:46  -2.21  -1.46  -505.326895    4             
iter:   9  21:19:55  -2.80  -1.71  -505.316687    5             
iter:  10  21:20:06  -3.80  -1.82  -505.290566    34            
iter:  11  21:20:16  -2.77  -1.87  -505.251317    33            
iter:  12  21:20:27  -2.80  -1.99  -505.232015    32            
iter:  13  21:20:37  -3.08  -2.14  -505.189611    32            
iter:  14  21:20:47  -4.09  -2.27  -505.191880    4             
iter:  15  21:20:57  -3.62  -2.29  -505.195203    33            
iter:  16  21:21:07  -3.79  -2.52  -505.194314    34            
iter:  17  21:21:17  -4.79  -2.61  -505.193042    4             
iter:  18  21:21:27  -4.02  -2.74  -505.197909    31            
iter:  19  21:21:38  -4.18  -2.72  -505.193074    32            
iter:  20  21:21:48  -5.75  -2.96  -505.193003    3             
iter:  21  21:21:58  -5.46  -3.00  -505.193032    4             
iter:  22  21:22:08  -4.56  -3.08  -505.194148    5             
iter:  23  21:22:16  -4.62  -2.91  -505.193309    4             
iter:  24  21:22:24  -6.15  -3.30  -505.193214    3             
iter:  25  21:22:32  -5.45  -3.43  -505.193300    4             
iter:  26  21:22:39  -5.37  -3.48  -505.193370    4             
iter:  27  21:22:46  -5.52  -3.45  -505.193257    4             
iter:  28  21:22:54  -7.18  -3.84  -505.193253    3             
iter:  29  21:23:01  -6.46  -4.03  -505.193259    3             
iter:  30  21:23:08  -6.66  -4.00  -505.193247    3             
iter:  31  21:23:16  -7.26  -4.42  -505.193249    3             
iter:  32  21:23:23  -7.54  -4.32  -505.193246    3             
iter:  33  21:23:31  -8.40  -4.75  -505.193246    2             

Converged after 33 iterations.

Dipole moment: (-0.107843, -9.441998, -47.420180) |e|*Ang

Energy contributions relative to reference atoms: (reference = -75445.846558)

Kinetic:       +584.660350
Potential:     -400.137534
External:        +0.000000
XC:            -686.269088
Entropy (-ST):   -0.007458
Local:           -3.443245
--------------------------
Free energy:   -505.196975
Extrapolated:  -505.193246

Fermi level: 0.16708

Showing only first 2 kpts
 Kpt  Band  Eigenvalues  Occupancy
  0   142     -0.63532    0.66667
  0   143     -0.59051    0.66667
  0   144     -0.03996    0.66667
  0   145      0.28820    0.00000

  1   142     -0.73203    0.66667
  1   143     -0.69834    0.66667
  1   144      0.17995    0.14420
  1   145      0.60440    0.00000


No gap

Forces in eV/Ang:
  0 Li    0.00025   -0.00202   -0.02880
  1 Li   -0.00025   -0.00201   -0.02880
  2 Li   -0.00001   -0.00020    0.04043
  3 Li    0.00001    0.00009    0.04046
  4 Li   -0.00017    0.00307   -0.02913
  5 Li    0.00017    0.00306   -0.02913
  6 Li   -0.00017   -0.00233   -0.02894
  7 Li    0.00017   -0.00234   -0.02894
  8 Li   -0.00001   -0.00002    0.04071
  9 Li    0.00001   -0.00029    0.04075
 10 Li    0.00025    0.00319   -0.02884
 11 Li   -0.00026    0.00319   -0.02885
 12 Li   -0.00009    0.00793    0.02125
 13 Li    0.00009    0.00793    0.02121
 14 Li   -0.00001   -0.00794    0.02127
 15 Li    0.00001   -0.00794    0.02122
 16 Li   -0.00003   -0.00016   -0.02106
 17 Li    0.00003   -0.00016   -0.02163
 18 Li   -0.00002    0.00756    0.02113
 19 Li    0.00002    0.00755    0.02109
 20 Li   -0.00009   -0.00770    0.02113
 21 Li    0.00009   -0.00770    0.02108
 22 Li   -0.00003    0.00012   -0.02197
 23 Li    0.00003    0.00012   -0.02121
 24 Li   -0.00052   -0.01352    0.02050
 25 Li    0.00053   -0.01351    0.02039
 26 Li   -0.00008    0.00064    0.00814
 27 Li    0.00009    0.00009    0.00789
 28 Li    0.00050    0.01508    0.02153
 29 Li   -0.00050    0.01506    0.02139
 30 Li    0.00048   -0.01484    0.02148
 31 Li   -0.00047   -0.01483    0.02131
 32 Li   -0.00010   -0.00078    0.00775
 33 Li    0.00010   -0.00028    0.00748
 34 Li   -0.00051    0.01458    0.02056
 35 Li    0.00051    0.01459    0.02042
 36 Li    0.00041    0.00381    0.02470
 37 Li   -0.00040    0.00375    0.02438
 38 Li    0.00020   -0.00251    0.02485
 39 Li   -0.00018   -0.00243    0.02455
 40 Li   -0.00024   -0.00095    0.02350
 41 Li    0.00024   -0.00090    0.02591
 42 Li    0.00014    0.00028    0.02242
 43 Li   -0.00016    0.00008    0.02202
 44 Li    0.00038   -0.00165    0.02254
 45 Li   -0.00043   -0.00146    0.02210
 46 Li   -0.00027    0.00095    0.02350
 47 Li    0.00025    0.00097    0.02166
 48 Li    0.00142    0.00865    0.00321
 49 Li   -0.00156    0.00889    0.00224
 50 Li   -0.00065    0.00211   -0.00418
 51 Li    0.00063    0.00433   -0.00258
 52 Li   -0.00269   -0.00152    0.01035
 53 Li    0.00264   -0.00189    0.00930
 54 Li   -0.00255   -0.00209    0.01047
 55 Li    0.00250   -0.00204    0.00920
 56 Li   -0.00105   -0.00206   -0.00914
 57 Li    0.00110   -0.00417   -0.00783
 58 Li    0.00143   -0.00511    0.00378
 59 Li   -0.00147   -0.00506    0.00260
 60 Li   -0.00184    0.00090   -0.00886
 61 Li    0.00166    0.00072   -0.01122
 62 Li   -0.00118    0.00904   -0.00842
 63 Li    0.00112    0.00952   -0.01052
 64 Li   -0.00188   -0.00751    0.00197
 65 Li    0.00189   -0.00794   -0.01392
 66 Li    0.00002   -0.02542   -0.02655
 67 Li    0.00037   -0.02745   -0.02991
 68 Li   -0.00056    0.01706   -0.02782
 69 Li    0.00179    0.01902   -0.03158
 70 Li   -0.00208    0.00782   -0.02163
 71 Li    0.00226    0.00809   -0.01688
 72 Li   -0.00288    0.03669   -0.00288
 73 Li    0.00392    0.03906   -0.01097
 74 Li   -0.00386    0.02341    0.01751
 75 Li    0.00410    0.01034    0.00923
 76 Li    0.01742    0.00261    0.03426
 77 Li   -0.01546   -0.00179    0.01811
 78 Li    0.01510   -0.03041    0.03588
 79 Li   -0.01387   -0.03090    0.01494
 80 Li   -0.01351   -0.02141   -0.04228
 81 Li    0.01218   -0.01158   -0.03885
 82 Li   -0.00265   -0.00832   -0.00090
 83 Li    0.00344   -0.00606   -0.01255
 84 Li    0.00424    0.02316    0.02617
 85 Li   -0.00299    0.02071    0.02321
 86 Li    0.00974    0.01705    0.02154
 87 Li   -0.01078    0.02250    0.02895
 88 Li   -0.01904   -0.07080   -0.00913
 89 Li    0.01727   -0.03272    0.14853
 90 Li   -0.02610   -0.13751   -0.08242
 91 Li    0.01954   -0.14654   -0.16866
 92 Li   -0.02380    0.07683   -0.11114
 93 Li   -0.01874    0.10697   -0.15958
 94 Li   -0.02076    0.08655   -0.01359
 95 Li    0.01740    0.07384   -0.01117
 96 Li    0.00286    0.06037    0.02506
 97 Li   -0.00143    0.07599    0.01917
 98 Li    0.00126    0.03865   -0.00584
 99 Li   -0.00313    0.10783    0.02774
100 Li   -0.11809    0.14502    0.24247
101 Li    0.11873    0.20372    0.34207
102 Li   -0.10400   -0.28368    0.21144
103 Li   -1.16608   -1.77291   -1.88930
104 Li   -0.21249   -0.04840   -0.04059
105 Li    2.13386    1.74279   -2.10288
106 Li   -0.02787    0.14366    0.02518
107 Li   -0.01708    0.23127   -0.02209
108 N    -0.00002   -0.00102    0.02443
109 N     0.00001   -0.00104    0.02449
110 N    -0.00007   -0.00049    0.02410
111 N    -0.00000   -0.00047    0.02416
112 N    -0.00012    0.00024    0.00320
113 N     0.00010    0.00025    0.00293
114 N     0.00013   -0.00059    0.00415
115 N    -0.00012   -0.00060    0.00435
116 N    -0.00017   -0.00174    0.00581
117 N     0.00015   -0.00176    0.00628
118 N    -0.00009    0.00097    0.00759
119 N     0.00009    0.00098    0.00833
120 N     0.00152    0.00273    0.00502
121 N    -0.00154    0.00286    0.00645
122 N    -0.00123   -0.00312    0.01268
123 N     0.00134   -0.00332    0.01416
124 N     0.00154   -0.00932    0.01015
125 N    -0.00136   -0.00933    0.01323
126 N     0.00081    0.00875    0.02638
127 N    -0.00126    0.00880    0.03302
128 N    -0.01004    0.02138   -0.02657
129 N     0.01043    0.02484   -0.01224
130 N     0.00372   -0.02311    0.01871
131 N    -0.00502   -0.02623    0.02959
132 N    -0.01020   -0.04809   -0.01516
133 N     0.00930   -0.04721   -0.00022
134 N     0.00353    0.04542    0.10018
135 N     0.00601    0.04353    0.18282
136 N     0.09391    0.12499   -0.13732
137 N    -0.10655    0.26588   -0.12598
138 N     0.00877   -0.16339    0.08975
139 N     0.00265   -0.25864    0.15975
140 N     0.03817   -0.16378   -0.11612
141 N    -0.03903   -0.21671   -0.16211
142 N    -0.29388    0.13665    0.22672
143 N     0.37239   -0.16795    0.74335
144 Li   -0.64205   -0.23679    3.14601

System changes: positions 

Initializing position-dependent things.

Density initialized from wave functions
        .-----------------.  
       /|                 |  
      / |                 |  
     /  |                 |  
    /   |                 |  
   /    |                 |  
  /     |                 |  
 *      |                 |  
 |      |                 |  
 |      |                 |  
 |      |                 |  
 |      |                 |  
 |      |                 |  
 |      |                 |  
 |      |                 |  
 |      |                 |  
 |      |                 |  
 |      |                 |  
 |      |                 |  
 |     Li Li    Li Li     |  
 |     N|   Li NN    Li N |  
 |   Lii|     Lii         |  
 | Li   |   Li            |  
 |N  LiLi  N  LiLi        |  
 Li N N LiLi N N LiLi     |  
 | LiLiN|   LiLiN    Li   |  
 |Li  Li|  Li  Li         |  
 | LiLi |   LiLi          |  
 |     Lii N N  Lii N N   |  
 Li   NN| LiLi NN  LiLi   |  
 | LiLi |   LiLi          |  
 |Lii Li|  Lii Li         |  
 |N  LiLi  N  LiLi        |  
 |  N N LiLi N N LiLi     |  
 LiLi  N| LiLi  N    Li   |  
 |Li Lii|  Li Lii         |  
 | LiLi |   LiLi          |  
 |N    Li--N----Li--------.  
 Li N N/LiLi N N LiLi    /   
 | LiLi     LiLi        /    
 |Lii/     Lii         /     
 |N /      N          /      
 | /   Li       Li   /       
 Li       Li        /        
 *-----------------*         

Positions:
   0 Li     0.000000    0.149598    1.096542    ( 0.0000,  0.0000,  0.0000)
   1 Li     3.658360    0.149598    1.096542    ( 0.0000,  0.0000,  0.0000)
   2 Li     1.829180    1.983573    0.737424    ( 0.0000,  0.0000,  0.0000)
   3 Li     5.487540    1.983573    0.737424    ( 0.0000,  0.0000,  0.0000)
   4 Li     0.000000    3.817429    1.096542    ( 0.0000,  0.0000,  0.0000)
   5 Li     3.658360    3.817429    1.096542    ( 0.0000,  0.0000,  0.0000)
   6 Li     0.000000    6.100198    1.096542    ( 0.0000,  0.0000,  0.0000)
   7 Li     3.658360    6.100198    1.096542    ( 0.0000,  0.0000,  0.0000)
   8 Li     1.829180    7.934173    0.737424    ( 0.0000,  0.0000,  0.0000)
   9 Li     5.487540    7.934173    0.737424    ( 0.0000,  0.0000,  0.0000)
  10 Li     0.000000    9.768029    1.096542    ( 0.0000,  0.0000,  0.0000)
  11 Li     3.658360    9.768029    1.096542    ( 0.0000,  0.0000,  0.0000)
  12 Li     0.000000    0.985776    2.969801    ( 0.0000,  0.0000,  0.0000)
  13 Li     3.658360    0.985776    2.969801    ( 0.0000,  0.0000,  0.0000)
  14 Li     0.000000    2.981370    2.969801    ( 0.0000,  0.0000,  0.0000)
  15 Li     3.658360    2.981370    2.969801    ( 0.0000,  0.0000,  0.0000)
  16 Li     1.829180    4.958873    2.868371    ( 0.0000,  0.0000,  0.0000)
  17 Li     5.487540    4.958873    2.868371    ( 0.0000,  0.0000,  0.0000)
  18 Li     0.000000    6.936376    2.969801    ( 0.0000,  0.0000,  0.0000)
  19 Li     3.658360    6.936376    2.969801    ( 0.0000,  0.0000,  0.0000)
  20 Li     0.000000    8.931970    2.969801    ( 0.0000,  0.0000,  0.0000)
  21 Li     3.658360    8.931970    2.969801    ( 0.0000,  0.0000,  0.0000)
  22 Li     1.829180   10.909473    2.868371    ( 0.0000,  0.0000,  0.0000)
  23 Li     5.487540   10.909473    2.868371    ( 0.0000,  0.0000,  0.0000)
  24 Li     0.000000    0.025588    4.824480    ( 0.0000,  0.0000,  0.0000)
  25 Li     3.658360    0.025588    4.824480    ( 0.0000,  0.0000,  0.0000)
  26 Li     1.829180    1.983573    4.814733    ( 0.0000,  0.0000,  0.0000)
  27 Li     5.487540    1.983573    4.814733    ( 0.0000,  0.0000,  0.0000)
  28 Li     0.000000    3.941439    4.824480    ( 0.0000,  0.0000,  0.0000)
  29 Li     3.658360    3.941439    4.824480    ( 0.0000,  0.0000,  0.0000)
  30 Li     0.000000    5.976188    4.824480    ( 0.0000,  0.0000,  0.0000)
  31 Li     3.658360    5.976188    4.824480    ( 0.0000,  0.0000,  0.0000)
  32 Li     1.829180    7.934173    4.814733    ( 0.0000,  0.0000,  0.0000)
  33 Li     5.487540    7.934173    4.814733    ( 0.0000,  0.0000,  0.0000)
  34 Li     0.000000    9.892039    4.824480    ( 0.0000,  0.0000,  0.0000)
  35 Li     3.658360    9.892039    4.824480    ( 0.0000,  0.0000,  0.0000)
  36 Li     0.000000    0.973161    6.703527    ( 0.0000,  0.0000,  0.0000)
  37 Li     3.658360    0.973161    6.703527    ( 0.0000,  0.0000,  0.0000)
  38 Li     0.000000    2.993985    6.703527    ( 0.0000,  0.0000,  0.0000)
  39 Li     3.658360    2.993985    6.703527    ( 0.0000,  0.0000,  0.0000)
  40 Li     1.829180    4.958873    6.690124    ( 0.0000,  0.0000,  0.0000)
  41 Li     5.487540    4.958873    6.690124    ( 0.0000,  0.0000,  0.0000)
  42 Li     0.000000    6.923761    6.703527    ( 0.0000,  0.0000,  0.0000)
  43 Li     3.658360    6.923761    6.703527    ( 0.0000,  0.0000,  0.0000)
  44 Li     0.000000    8.944585    6.703527    ( 0.0000,  0.0000,  0.0000)
  45 Li     3.658360    8.944585    6.703527    ( 0.0000,  0.0000,  0.0000)
  46 Li     1.829180   10.909473    6.690124    ( 0.0000,  0.0000,  0.0000)
  47 Li     5.487540   10.909473    6.690124    ( 0.0000,  0.0000,  0.0000)
  48 Li     0.000000    0.023445    8.588056    ( 0.0000,  0.0000,  0.0000)
  49 Li     3.658360    0.023445    8.588056    ( 0.0000,  0.0000,  0.0000)
  50 Li     1.829180    1.983573    8.587447    ( 0.0000,  0.0000,  0.0000)
  51 Li     5.487540    1.983573    8.587447    ( 0.0000,  0.0000,  0.0000)
  52 Li     0.000000    3.943701    8.588056    ( 0.0000,  0.0000,  0.0000)
  53 Li     3.658360    3.943701    8.588056    ( 0.0000,  0.0000,  0.0000)
  54 Li     0.000000    5.974045    8.588056    ( 0.0000,  0.0000,  0.0000)
  55 Li     3.658360    5.974045    8.588056    ( 0.0000,  0.0000,  0.0000)
  56 Li     1.829180    7.934173    8.587447    ( 0.0000,  0.0000,  0.0000)
  57 Li     5.487540    7.934173    8.587447    ( 0.0000,  0.0000,  0.0000)
  58 Li     0.000000    9.894301    8.588056    ( 0.0000,  0.0000,  0.0000)
  59 Li     3.658360    9.894301    8.588056    ( 0.0000,  0.0000,  0.0000)
  60 Li     0.000000    0.973280   10.477458    ( 0.0000,  0.0000,  0.0000)
  61 Li     3.658360    0.973280   10.477458    ( 0.0000,  0.0000,  0.0000)
  62 Li     0.000000    2.993747   10.477458    ( 0.0000,  0.0000,  0.0000)
  63 Li     3.658360    2.993747   10.477458    ( 0.0000,  0.0000,  0.0000)
  64 Li     1.829180    4.958873   10.488728    ( 0.0000,  0.0000,  0.0000)
  65 Li     5.487540    4.958873   10.488728    ( 0.0000,  0.0000,  0.0000)
  66 Li     0.000000    6.923880   10.477458    ( 0.0000,  0.0000,  0.0000)
  67 Li     3.658360    6.923880   10.477458    ( 0.0000,  0.0000,  0.0000)
  68 Li     0.000000    8.944347   10.477458    ( 0.0000,  0.0000,  0.0000)
  69 Li     3.658360    8.944347   10.477458    ( 0.0000,  0.0000,  0.0000)
  70 Li     1.829180   10.909473   10.488728    ( 0.0000,  0.0000,  0.0000)
  71 Li     5.487540   10.909473   10.488728    ( 0.0000,  0.0000,  0.0000)
  72 Li     0.000000    0.024278   12.359551    ( 0.0000,  0.0000,  0.0000)
  73 Li     3.658360    0.024278   12.359551    ( 0.0000,  0.0000,  0.0000)
  74 Li     1.829180    1.983573   12.373562    ( 0.0000,  0.0000,  0.0000)
  75 Li     5.487540    1.983573   12.373562    ( 0.0000,  0.0000,  0.0000)
  76 Li     0.000000    3.942749   12.359551    ( 0.0000,  0.0000,  0.0000)
  77 Li     3.658360    3.942749   12.359551    ( 0.0000,  0.0000,  0.0000)
  78 Li     0.000000    5.974878   12.359551    ( 0.0000,  0.0000,  0.0000)
  79 Li     3.658360    5.974878   12.359551    ( 0.0000,  0.0000,  0.0000)
  80 Li     1.829180    7.934173   12.373562    ( 0.0000,  0.0000,  0.0000)
  81 Li     5.487540    7.934173   12.373562    ( 0.0000,  0.0000,  0.0000)
  82 Li     0.000000    9.893349   12.359551    ( 0.0000,  0.0000,  0.0000)
  83 Li     3.658360    9.893349   12.359551    ( 0.0000,  0.0000,  0.0000)
  84 Li     0.000000    0.986490   14.223977    ( 0.0000,  0.0000,  0.0000)
  85 Li     3.658360    0.986490   14.223977    ( 0.0000,  0.0000,  0.0000)
  86 Li     0.000000    2.980656   14.223977    ( 0.0000,  0.0000,  0.0000)
  87 Li     3.658360    2.980656   14.223977    ( 0.0000,  0.0000,  0.0000)
  88 Li     1.829180    4.958873   14.335459    ( 0.0000,  0.0000,  0.0000)
  89 Li     5.487540    4.958873   14.335459    ( 0.0000,  0.0000,  0.0000)
  90 Li     0.000000    6.937090   14.223977    ( 0.0000,  0.0000,  0.0000)
  91 Li     3.658360    6.937090   14.223977    ( 0.0000,  0.0000,  0.0000)
  92 Li     0.000000    8.931256   14.223977    ( 0.0000,  0.0000,  0.0000)
  93 Li     3.658360    8.931256   14.223977    ( 0.0000,  0.0000,  0.0000)
  94 Li     1.829180   10.909473   14.335459    ( 0.0000,  0.0000,  0.0000)
  95 Li     5.487540   10.909473   14.335459    ( 0.0000,  0.0000,  0.0000)
  96 Li     0.000000    0.150074   16.101196    ( 0.0000,  0.0000,  0.0000)
  97 Li     3.658360    0.150074   16.101196    ( 0.0000,  0.0000,  0.0000)
  98 Li     1.829180    1.983573   16.466405    ( 0.0000,  0.0000,  0.0000)
  99 Li     5.487540    1.983573   16.466405    ( 0.0000,  0.0000,  0.0000)
 100 Li     0.000000    3.816953   16.101196    ( 0.0000,  0.0000,  0.0000)
 101 Li     3.658360    3.816953   16.101196    ( 0.0000,  0.0000,  0.0000)
 102 Li     0.000000    6.100674   16.101196    ( 0.0000,  0.0000,  0.0000)
 103 Li     3.658360    6.100674   16.101196    ( 0.0000,  0.0000,  0.0000)
 104 Li     1.829180    7.934173   16.466405    ( 0.0000,  0.0000,  0.0000)
 105 Li     5.487540    7.934173   16.466405    ( 0.0000,  0.0000,  0.0000)
 106 Li     0.000000    9.767553   16.101196    ( 0.0000,  0.0000,  0.0000)
 107 Li     3.658360    9.767553   16.101196    ( 0.0000,  0.0000,  0.0000)
 108 N      0.000000    1.983573    1.228127    ( 0.0000,  0.0000,  0.0000)
 109 N      3.658360    1.983573    1.228127    ( 0.0000,  0.0000,  0.0000)
 110 N      0.000000    7.934173    1.228127    ( 0.0000,  0.0000,  0.0000)
 111 N      3.658360    7.934173    1.228127    ( 0.0000,  0.0000,  0.0000)
 112 N      0.000000    4.958873    2.852227    ( 0.0000,  0.0000,  0.0000)
 113 N      3.658360    4.958873    2.852227    ( 0.0000,  0.0000,  0.0000)
 114 N      0.000000   10.909473    2.852227    ( 0.0000,  0.0000,  0.0000)
 115 N      3.658360   10.909473    2.852227    ( 0.0000,  0.0000,  0.0000)
 116 N      0.000000    1.983573    4.859204    ( 0.0000,  0.0000,  0.0000)
 117 N      3.658360    1.983573    4.859204    ( 0.0000,  0.0000,  0.0000)
 118 N      0.000000    7.934173    4.859204    ( 0.0000,  0.0000,  0.0000)
 119 N      3.658360    7.934173    4.859204    ( 0.0000,  0.0000,  0.0000)
 120 N      0.000000    4.958873    6.693780    ( 0.0000,  0.0000,  0.0000)
 121 N      3.658360    4.958873    6.693780    ( 0.0000,  0.0000,  0.0000)
 122 N      0.000000   10.909473    6.693780    ( 0.0000,  0.0000,  0.0000)
 123 N      3.658360   10.909473    6.693780    ( 0.0000,  0.0000,  0.0000)
 124 N      0.000022    1.983440    8.581195    ( 0.0000,  0.0000,  0.0000)
 125 N      3.658341    1.983440    8.581239    ( 0.0000,  0.0000,  0.0000)
 126 N      0.000012    7.934298    8.581427    ( 0.0000,  0.0000,  0.0000)
 127 N      3.658342    7.934299    8.581522    ( 0.0000,  0.0000,  0.0000)
 128 N     -0.000143    4.959178   10.495659    ( 0.0000,  0.0000,  0.0000)
 129 N      3.658509    4.959228   10.495864    ( 0.0000,  0.0000,  0.0000)
 130 N      0.000053   10.909143   10.496306    ( 0.0000,  0.0000,  0.0000)
 131 N      3.658288   10.909098   10.496461    ( 0.0000,  0.0000,  0.0000)
 132 N     -0.000146    1.982886   12.339231    ( 0.0000,  0.0000,  0.0000)
 133 N      3.658493    1.982899   12.339444    ( 0.0000,  0.0000,  0.0000)
 134 N      0.000050    7.934822   12.340879    ( 0.0000,  0.0000,  0.0000)
 135 N      3.658446    7.934795   12.342059    ( 0.0000,  0.0000,  0.0000)
 136 N      0.001342    4.960659   14.346290    ( 0.0000,  0.0000,  0.0000)
 137 N      3.656838    4.962671   14.346452    ( 0.0000,  0.0000,  0.0000)
 138 N      0.000125   10.907139   14.349534    ( 0.0000,  0.0000,  0.0000)
 139 N      3.658398   10.905778   14.350534    ( 0.0000,  0.0000,  0.0000)
 140 N      0.000545    1.981233   15.977090    ( 0.0000,  0.0000,  0.0000)
 141 N      3.657802    1.980477   15.976433    ( 0.0000,  0.0000,  0.0000)
 142 N     -0.004198    7.936125   15.981987    ( 0.0000,  0.0000,  0.0000)
 143 N      3.663680    7.931774   15.989368    ( 0.0000,  0.0000,  0.0000)
 144 Li     4.463539    6.994523   17.406857    ( 0.0000,  0.0000,  0.0000)

Unit cell:
           periodic     x           y           z      points  spacing
  1. axis:    yes    7.316720    0.000000    0.000000    36     0.2032
  2. axis:    yes    0.000000   11.901200    0.000000    60     0.1984
  3. axis:    yes    0.000000    0.000000   30.459499   150     0.2031

  Lengths:   7.316720  11.901200  30.459499
  Angles:   90.000000  90.000000  90.000000

Effective grid spacing dv^(1/3) = 0.2015

                     log10-error:    total        iterations:
           time      wfs    density  energy       fermi  poisson
iter:   1  21:23:46  -3.74         -505.358024    27            
iter:   2  21:23:53  -5.12  -3.09  -505.357306    3             
iter:   3  21:24:01  -5.10  -3.16  -505.355596    4             
iter:   4  21:24:09  -6.26  -3.38  -505.355477    3             
iter:   5  21:24:16  -5.45  -3.44  -505.355190    4             
iter:   6  21:24:24  -5.98  -3.69  -505.355225    4             
iter:   7  21:24:31  -6.26  -3.72  -505.355125    3             
iter:   8  21:24:39  -6.55  -3.96  -505.355117    2             
iter:   9  21:24:46  -6.75  -4.11  -505.355118    3             
iter:  10  21:24:54  -7.25  -4.18  -505.355109    3             
iter:  11  21:25:01  -7.40  -4.47  -505.355110    3             
iter:  12  21:25:09  -7.90  -4.52  -505.355109    3             
iter:  13  21:25:16  -9.05  -4.80  -505.355109    2             

Converged after 13 iterations.

Dipole moment: (0.080138, -9.471820, -47.412424) |e|*Ang

Energy contributions relative to reference atoms: (reference = -75445.846558)

Kinetic:       +584.150082
Potential:     -399.911549
External:        +0.000000
XC:            -686.140541
Entropy (-ST):   -0.007467
Local:           -3.449367
--------------------------
Free energy:   -505.358843
Extrapolated:  -505.355109

Fermi level: 0.17525

Showing only first 2 kpts
 Kpt  Band  Eigenvalues  Occupancy
  0   142     -0.63409    0.66667
  0   143     -0.58788    0.66667
  0   144     -0.03410    0.66667
  0   145      0.29662    0.00000

  1   142     -0.73030    0.66667
  1   143     -0.69549    0.66667
  1   144      0.18788    0.14705
  1   145      0.61680    0.00000


No gap

Forces in eV/Ang:
  0 Li    0.00025   -0.00196   -0.02852
  1 Li   -0.00025   -0.00195   -0.02852
  2 Li   -0.00001   -0.00020    0.04070
  3 Li    0.00001    0.00009    0.04072
  4 Li   -0.00017    0.00300   -0.02884
  5 Li    0.00017    0.00300   -0.02885
  6 Li   -0.00017   -0.00228   -0.02866
  7 Li    0.00017   -0.00229   -0.02866
  8 Li   -0.00001   -0.00002    0.04100
  9 Li    0.00001   -0.00029    0.04103
 10 Li    0.00025    0.00314   -0.02856
 11 Li   -0.00026    0.00315   -0.02857
 12 Li   -0.00009    0.00790    0.02128
 13 Li    0.00008    0.00789    0.02123
 14 Li   -0.00001   -0.00790    0.02129
 15 Li    0.00001   -0.00790    0.02124
 16 Li   -0.00004   -0.00017   -0.02104
 17 Li    0.00004   -0.00016   -0.02160
 18 Li   -0.00002    0.00750    0.02114
 19 Li    0.00002    0.00750    0.02109
 20 Li   -0.00008   -0.00764    0.02114
 21 Li    0.00009   -0.00764    0.02108
 22 Li   -0.00004    0.00013   -0.02194
 23 Li    0.00004    0.00013   -0.02118
 24 Li   -0.00051   -0.01356    0.02067
 25 Li    0.00052   -0.01355    0.02052
 26 Li   -0.00010    0.00063    0.00820
 27 Li    0.00011    0.00008    0.00795
 28 Li    0.00050    0.01513    0.02167
 29 Li   -0.00050    0.01511    0.02149
 30 Li    0.00047   -0.01493    0.02162
 31 Li   -0.00047   -0.01494    0.02141
 32 Li   -0.00014   -0.00077    0.00779
 33 Li    0.00014   -0.00027    0.00752
 34 Li   -0.00050    0.01467    0.02072
 35 Li    0.00050    0.01469    0.02054
 36 Li    0.00042    0.00369    0.02492
 37 Li   -0.00041    0.00364    0.02456
 38 Li    0.00022   -0.00256    0.02503
 39 Li   -0.00020   -0.00249    0.02469
 40 Li   -0.00031   -0.00099    0.02348
 41 Li    0.00031   -0.00094    0.02590
 42 Li    0.00013    0.00027    0.02277
 43 Li   -0.00016    0.00002    0.02232
 44 Li    0.00038   -0.00147    0.02293
 45 Li   -0.00044   -0.00125    0.02243
 46 Li   -0.00034    0.00100    0.02351
 47 Li    0.00033    0.00102    0.02168
 48 Li    0.00144    0.00807    0.00381
 49 Li   -0.00158    0.00836    0.00273
 50 Li   -0.00076    0.00201   -0.00392
 51 Li    0.00077    0.00428   -0.00226
 52 Li   -0.00281   -0.00163    0.01064
 53 Li    0.00278   -0.00198    0.00960
 54 Li   -0.00268   -0.00165    0.01105
 55 Li    0.00264   -0.00169    0.00977
 56 Li   -0.00133   -0.00198   -0.00859
 57 Li    0.00129   -0.00413   -0.00734
 58 Li    0.00145   -0.00490    0.00469
 59 Li   -0.00151   -0.00484    0.00339
 60 Li   -0.00198   -0.00089   -0.00841
 61 Li    0.00180   -0.00106   -0.01068
 62 Li   -0.00151    0.00952   -0.00846
 63 Li    0.00144    0.01019   -0.01036
 64 Li   -0.00197   -0.00722    0.00228
 65 Li    0.00205   -0.00776   -0.01360
 66 Li    0.00002   -0.02385   -0.02480
 67 Li    0.00045   -0.02609   -0.02739
 68 Li   -0.00038    0.01660   -0.02547
 69 Li    0.00163    0.01864   -0.02863
 70 Li   -0.00254    0.00751   -0.02073
 71 Li    0.00247    0.00790   -0.01606
 72 Li   -0.00267    0.03290   -0.00230
 73 Li    0.00373    0.03531   -0.01142
 74 Li   -0.00429    0.02309    0.01795
 75 Li    0.00437    0.00993    0.00919
 76 Li    0.01813    0.00280    0.03437
 77 Li   -0.01656   -0.00016    0.01868
 78 Li    0.01608   -0.02788    0.03829
 79 Li   -0.01489   -0.02865    0.01945
 80 Li   -0.01343   -0.02111   -0.04073
 81 Li    0.01379   -0.01095   -0.03564
 82 Li   -0.00227   -0.00787    0.00256
 83 Li    0.00322   -0.00604   -0.00924
 84 Li    0.00474    0.01113    0.02323
 85 Li   -0.00346    0.00414    0.01981
 86 Li    0.01121    0.02075    0.01919
 87 Li   -0.01247    0.03244    0.02642
 88 Li   -0.01902   -0.06854   -0.01046
 89 Li    0.01462   -0.02896    0.14580
 90 Li   -0.02701   -0.12634   -0.07520
 91 Li    0.02210   -0.13277   -0.14996
 92 Li   -0.02681    0.07080   -0.10310
 93 Li   -0.01158    0.08622   -0.13696
 94 Li   -0.02065    0.08564   -0.01194
 95 Li    0.01947    0.07041   -0.00859
 96 Li    0.00352    0.04273    0.02541
 97 Li   -0.00208    0.05360    0.02099
 98 Li    0.00210    0.03601   -0.00847
 99 Li   -0.00405    0.10436    0.02254
100 Li   -0.11436    0.13110    0.23955
101 Li    0.11477    0.18866    0.33883
102 Li   -0.10695   -0.26681    0.21234
103 Li   -1.07202   -1.70082   -1.82939
104 Li   -0.21988   -0.04842   -0.04227
105 Li    2.02423    1.61602   -2.03941
106 Li   -0.03023    0.15318    0.02783
107 Li   -0.01137    0.21811   -0.01586
108 N     0.00001   -0.00103    0.02232
109 N    -0.00002   -0.00105    0.02244
110 N    -0.00009   -0.00048    0.02187
111 N     0.00004   -0.00049    0.02183
112 N    -0.00013    0.00030    0.00324
113 N     0.00010    0.00035    0.00310
114 N     0.00010   -0.00065    0.00415
115 N    -0.00009   -0.00072    0.00446
116 N    -0.00015   -0.00166    0.00508
117 N     0.00012   -0.00177    0.00582
118 N    -0.00012    0.00093    0.00723
119 N     0.00012    0.00092    0.00822
120 N     0.00151    0.00276    0.00418
121 N    -0.00153    0.00295    0.00601
122 N    -0.00119   -0.00317    0.01201
123 N     0.00131   -0.00346    0.01397
124 N     0.00114   -0.00787    0.00846
125 N    -0.00100   -0.00798    0.01199
126 N     0.00050    0.00726    0.02246
127 N    -0.00081    0.00747    0.02929
128 N    -0.00730    0.01754   -0.02659
129 N     0.00761    0.02116   -0.01311
130 N     0.00232   -0.01877    0.01483
131 N    -0.00328   -0.02225    0.02688
132 N    -0.00792   -0.03984   -0.01474
133 N     0.00740   -0.04084   -0.00034
134 N     0.00306    0.03720    0.08526
135 N     0.00255    0.03864    0.16906
136 N     0.06588    0.09881   -0.12922
137 N    -0.07509    0.21067   -0.12930
138 N     0.00721   -0.13199    0.07673
139 N    -0.00080   -0.22481    0.14771
140 N     0.02886   -0.11782   -0.10329
141 N    -0.02955   -0.15930   -0.14697
142 N    -0.21279    0.09827    0.20416
143 N     0.33001   -0.18385    0.78156
144 Li   -0.65773   -0.14437    2.95052

System changes: positions 

Initializing position-dependent things.

Density initialized from wave functions
        .-----------------.  
       /|                 |  
      / |                 |  
     /  |                 |  
    /   |                 |  
   /    |                 |  
  /     |                 |  
 *      |                 |  
 |      |                 |  
 |      |                 |  
 |      |                 |  
 |      |                 |  
 |      |                 |  
 |      |                 |  
 |      |                 |  
 |      |                 |  
 |      |                 |  
 |      |                 |  
 |      |                 |  
 |     Li Li    Li Li     |  
 |     N|   Li NN    Li N |  
 |   Lii|     Lii         |  
 | Li   |   Li            |  
 |N  LiLi  N  LiLi        |  
 Li N N LiLi N N LiLi     |  
 | LiLiN|   LiLiN    Li   |  
 |Li  Li|  Li  Li         |  
 | LiLi |   LiLi          |  
 |     Lii N N  Lii N N   |  
 Li   NN| LiLi NN  LiLi   |  
 | LiLi |   LiLi          |  
 |Lii Li|  Lii Li         |  
 |N  LiLi  N  LiLi        |  
 |  N N LiLi N N LiLi     |  
 LiLi  N| LiLi  N    Li   |  
 |Li Lii|  Li Lii         |  
 | LiLi |   LiLi          |  
 |N    Li--N----Li--------.  
 Li N N/LiLi N N LiLi    /   
 | LiLi     LiLi        /    
 |Lii/     Lii         /     
 |N /      N          /      
 | /   Li       Li   /       
 Li       Li        /        
 *-----------------*         

Positions:
   0 Li     0.000000    0.149598    1.096542    ( 0.0000,  0.0000,  0.0000)
   1 Li     3.658360    0.149598    1.096542    ( 0.0000,  0.0000,  0.0000)
   2 Li     1.829180    1.983573    0.737424    ( 0.0000,  0.0000,  0.0000)
   3 Li     5.487540    1.983573    0.737424    ( 0.0000,  0.0000,  0.0000)
   4 Li     0.000000    3.817429    1.096542    ( 0.0000,  0.0000,  0.0000)
   5 Li     3.658360    3.817429    1.096542    ( 0.0000,  0.0000,  0.0000)
   6 Li     0.000000    6.100198    1.096542    ( 0.0000,  0.0000,  0.0000)
   7 Li     3.658360    6.100198    1.096542    ( 0.0000,  0.0000,  0.0000)
   8 Li     1.829180    7.934173    0.737424    ( 0.0000,  0.0000,  0.0000)
   9 Li     5.487540    7.934173    0.737424    ( 0.0000,  0.0000,  0.0000)
  10 Li     0.000000    9.768029    1.096542    ( 0.0000,  0.0000,  0.0000)
  11 Li     3.658360    9.768029    1.096542    ( 0.0000,  0.0000,  0.0000)
  12 Li     0.000000    0.985776    2.969801    ( 0.0000,  0.0000,  0.0000)
  13 Li     3.658360    0.985776    2.969801    ( 0.0000,  0.0000,  0.0000)
  14 Li     0.000000    2.981370    2.969801    ( 0.0000,  0.0000,  0.0000)
  15 Li     3.658360    2.981370    2.969801    ( 0.0000,  0.0000,  0.0000)
  16 Li     1.829180    4.958873    2.868371    ( 0.0000,  0.0000,  0.0000)
  17 Li     5.487540    4.958873    2.868371    ( 0.0000,  0.0000,  0.0000)
  18 Li     0.000000    6.936376    2.969801    ( 0.0000,  0.0000,  0.0000)
  19 Li     3.658360    6.936376    2.969801    ( 0.0000,  0.0000,  0.0000)
  20 Li     0.000000    8.931970    2.969801    ( 0.0000,  0.0000,  0.0000)
  21 Li     3.658360    8.931970    2.969801    ( 0.0000,  0.0000,  0.0000)
  22 Li     1.829180   10.909473    2.868371    ( 0.0000,  0.0000,  0.0000)
  23 Li     5.487540   10.909473    2.868371    ( 0.0000,  0.0000,  0.0000)
  24 Li     0.000000    0.025588    4.824480    ( 0.0000,  0.0000,  0.0000)
  25 Li     3.658360    0.025588    4.824480    ( 0.0000,  0.0000,  0.0000)
  26 Li     1.829180    1.983573    4.814733    ( 0.0000,  0.0000,  0.0000)
  27 Li     5.487540    1.983573    4.814733    ( 0.0000,  0.0000,  0.0000)
  28 Li     0.000000    3.941439    4.824480    ( 0.0000,  0.0000,  0.0000)
  29 Li     3.658360    3.941439    4.824480    ( 0.0000,  0.0000,  0.0000)
  30 Li     0.000000    5.976188    4.824480    ( 0.0000,  0.0000,  0.0000)
  31 Li     3.658360    5.976188    4.824480    ( 0.0000,  0.0000,  0.0000)
  32 Li     1.829180    7.934173    4.814733    ( 0.0000,  0.0000,  0.0000)
  33 Li     5.487540    7.934173    4.814733    ( 0.0000,  0.0000,  0.0000)
  34 Li     0.000000    9.892039    4.824480    ( 0.0000,  0.0000,  0.0000)
  35 Li     3.658360    9.892039    4.824480    ( 0.0000,  0.0000,  0.0000)
  36 Li     0.000000    0.973161    6.703527    ( 0.0000,  0.0000,  0.0000)
  37 Li     3.658360    0.973161    6.703527    ( 0.0000,  0.0000,  0.0000)
  38 Li     0.000000    2.993985    6.703527    ( 0.0000,  0.0000,  0.0000)
  39 Li     3.658360    2.993985    6.703527    ( 0.0000,  0.0000,  0.0000)
  40 Li     1.829180    4.958873    6.690124    ( 0.0000,  0.0000,  0.0000)
  41 Li     5.487540    4.958873    6.690124    ( 0.0000,  0.0000,  0.0000)
  42 Li     0.000000    6.923761    6.703527    ( 0.0000,  0.0000,  0.0000)
  43 Li     3.658360    6.923761    6.703527    ( 0.0000,  0.0000,  0.0000)
  44 Li     0.000000    8.944585    6.703527    ( 0.0000,  0.0000,  0.0000)
  45 Li     3.658360    8.944585    6.703527    ( 0.0000,  0.0000,  0.0000)
  46 Li     1.829180   10.909473    6.690124    ( 0.0000,  0.0000,  0.0000)
  47 Li     5.487540   10.909473    6.690124    ( 0.0000,  0.0000,  0.0000)
  48 Li     0.000000    0.023445    8.588056    ( 0.0000,  0.0000,  0.0000)
  49 Li     3.658360    0.023445    8.588056    ( 0.0000,  0.0000,  0.0000)
  50 Li     1.829180    1.983573    8.587447    ( 0.0000,  0.0000,  0.0000)
  51 Li     5.487540    1.983573    8.587447    ( 0.0000,  0.0000,  0.0000)
  52 Li     0.000000    3.943701    8.588056    ( 0.0000,  0.0000,  0.0000)
  53 Li     3.658360    3.943701    8.588056    ( 0.0000,  0.0000,  0.0000)
  54 Li     0.000000    5.974045    8.588056    ( 0.0000,  0.0000,  0.0000)
  55 Li     3.658360    5.974045    8.588056    ( 0.0000,  0.0000,  0.0000)
  56 Li     1.829180    7.934173    8.587447    ( 0.0000,  0.0000,  0.0000)
  57 Li     5.487540    7.934173    8.587447    ( 0.0000,  0.0000,  0.0000)
  58 Li     0.000000    9.894301    8.588056    ( 0.0000,  0.0000,  0.0000)
  59 Li     3.658360    9.894301    8.588056    ( 0.0000,  0.0000,  0.0000)
  60 Li     0.000000    0.973280   10.477458    ( 0.0000,  0.0000,  0.0000)
  61 Li     3.658360    0.973280   10.477458    ( 0.0000,  0.0000,  0.0000)
  62 Li     0.000000    2.993747   10.477458    ( 0.0000,  0.0000,  0.0000)
  63 Li     3.658360    2.993747   10.477458    ( 0.0000,  0.0000,  0.0000)
  64 Li     1.829180    4.958873   10.488728    ( 0.0000,  0.0000,  0.0000)
  65 Li     5.487540    4.958873   10.488728    ( 0.0000,  0.0000,  0.0000)
  66 Li     0.000000    6.923880   10.477458    ( 0.0000,  0.0000,  0.0000)
  67 Li     3.658360    6.923880   10.477458    ( 0.0000,  0.0000,  0.0000)
  68 Li     0.000000    8.944347   10.477458    ( 0.0000,  0.0000,  0.0000)
  69 Li     3.658360    8.944347   10.477458    ( 0.0000,  0.0000,  0.0000)
  70 Li     1.829180   10.909473   10.488728    ( 0.0000,  0.0000,  0.0000)
  71 Li     5.487540   10.909473   10.488728    ( 0.0000,  0.0000,  0.0000)
  72 Li     0.000000    0.024278   12.359551    ( 0.0000,  0.0000,  0.0000)
  73 Li     3.658360    0.024278   12.359551    ( 0.0000,  0.0000,  0.0000)
  74 Li     1.829180    1.983573   12.373562    ( 0.0000,  0.0000,  0.0000)
  75 Li     5.487540    1.983573   12.373562    ( 0.0000,  0.0000,  0.0000)
  76 Li     0.000000    3.942749   12.359551    ( 0.0000,  0.0000,  0.0000)
  77 Li     3.658360    3.942749   12.359551    ( 0.0000,  0.0000,  0.0000)
  78 Li     0.000000    5.974878   12.359551    ( 0.0000,  0.0000,  0.0000)
  79 Li     3.658360    5.974878   12.359551    ( 0.0000,  0.0000,  0.0000)
  80 Li     1.829180    7.934173   12.373562    ( 0.0000,  0.0000,  0.0000)
  81 Li     5.487540    7.934173   12.373562    ( 0.0000,  0.0000,  0.0000)
  82 Li     0.000000    9.893349   12.359551    ( 0.0000,  0.0000,  0.0000)
  83 Li     3.658360    9.893349   12.359551    ( 0.0000,  0.0000,  0.0000)
  84 Li     0.000000    0.986490   14.223977    ( 0.0000,  0.0000,  0.0000)
  85 Li     3.658360    0.986490   14.223977    ( 0.0000,  0.0000,  0.0000)
  86 Li     0.000000    2.980656   14.223977    ( 0.0000,  0.0000,  0.0000)
  87 Li     3.658360    2.980656   14.223977    ( 0.0000,  0.0000,  0.0000)
  88 Li     1.829180    4.958873   14.335459    ( 0.0000,  0.0000,  0.0000)
  89 Li     5.487540    4.958873   14.335459    ( 0.0000,  0.0000,  0.0000)
  90 Li     0.000000    6.937090   14.223977    ( 0.0000,  0.0000,  0.0000)
  91 Li     3.658360    6.937090   14.223977    ( 0.0000,  0.0000,  0.0000)
  92 Li     0.000000    8.931256   14.223977    ( 0.0000,  0.0000,  0.0000)
  93 Li     3.658360    8.931256   14.223977    ( 0.0000,  0.0000,  0.0000)
  94 Li     1.829180   10.909473   14.335459    ( 0.0000,  0.0000,  0.0000)
  95 Li     5.487540   10.909473   14.335459    ( 0.0000,  0.0000,  0.0000)
  96 Li     0.000000    0.150074   16.101196    ( 0.0000,  0.0000,  0.0000)
  97 Li     3.658360    0.150074   16.101196    ( 0.0000,  0.0000,  0.0000)
  98 Li     1.829180    1.983573   16.466405    ( 0.0000,  0.0000,  0.0000)
  99 Li     5.487540    1.983573   16.466405    ( 0.0000,  0.0000,  0.0000)
 100 Li     0.000000    3.816953   16.101196    ( 0.0000,  0.0000,  0.0000)
 101 Li     3.658360    3.816953   16.101196    ( 0.0000,  0.0000,  0.0000)
 102 Li     0.000000    6.100674   16.101196    ( 0.0000,  0.0000,  0.0000)
 103 Li     3.658360    6.100674   16.101196    ( 0.0000,  0.0000,  0.0000)
 104 Li     1.829180    7.934173   16.466405    ( 0.0000,  0.0000,  0.0000)
 105 Li     5.487540    7.934173   16.466405    ( 0.0000,  0.0000,  0.0000)
 106 Li     0.000000    9.767553   16.101196    ( 0.0000,  0.0000,  0.0000)
 107 Li     3.658360    9.767553   16.101196    ( 0.0000,  0.0000,  0.0000)
 108 N      0.000000    1.983573    1.228127    ( 0.0000,  0.0000,  0.0000)
 109 N      3.658360    1.983573    1.228127    ( 0.0000,  0.0000,  0.0000)
 110 N      0.000000    7.934173    1.228127    ( 0.0000,  0.0000,  0.0000)
 111 N      3.658360    7.934173    1.228127    ( 0.0000,  0.0000,  0.0000)
 112 N      0.000000    4.958873    2.852227    ( 0.0000,  0.0000,  0.0000)
 113 N      3.658360    4.958873    2.852227    ( 0.0000,  0.0000,  0.0000)
 114 N      0.000000   10.909473    2.852227    ( 0.0000,  0.0000,  0.0000)
 115 N      3.658360   10.909473    2.852227    ( 0.0000,  0.0000,  0.0000)
 116 N      0.000000    1.983573    4.859204    ( 0.0000,  0.0000,  0.0000)
 117 N      3.658360    1.983573    4.859204    ( 0.0000,  0.0000,  0.0000)
 118 N      0.000000    7.934173    4.859204    ( 0.0000,  0.0000,  0.0000)
 119 N      3.658360    7.934173    4.859204    ( 0.0000,  0.0000,  0.0000)
 120 N      0.000000    4.958873    6.693780    ( 0.0000,  0.0000,  0.0000)
 121 N      3.658360    4.958873    6.693780    ( 0.0000,  0.0000,  0.0000)
 122 N      0.000000   10.909473    6.693780    ( 0.0000,  0.0000,  0.0000)
 123 N      3.658360   10.909473    6.693780    ( 0.0000,  0.0000,  0.0000)
 124 N      0.000098    1.982917    8.581757    ( 0.0000,  0.0000,  0.0000)
 125 N      3.658273    1.982910    8.582033    ( 0.0000,  0.0000,  0.0000)
 126 N      0.000046    7.934781    8.582918    ( 0.0000,  0.0000,  0.0000)
 127 N      3.658287    7.934794    8.583463    ( 0.0000,  0.0000,  0.0000)
 128 N     -0.000632    4.960345   10.493907    ( 0.0000,  0.0000,  0.0000)
 129 N      3.659018    4.960632   10.495002    ( 0.0000,  0.0000,  0.0000)
 130 N      0.000210   10.907894   10.497294    ( 0.0000,  0.0000,  0.0000)
 131 N      3.658068   10.907621   10.498241    ( 0.0000,  0.0000,  0.0000)
 132 N     -0.000674    1.980238   12.338258    ( 0.0000,  0.0000,  0.0000)
 133 N      3.658985    1.980189   12.339423    ( 0.0000,  0.0000,  0.0000)
 134 N      0.000254    7.937295   12.346538    ( 0.0000,  0.0000,  0.0000)
 135 N      3.658623    7.937355   12.353240    ( 0.0000,  0.0000,  0.0000)
 136 N      0.005758    4.967240   14.337750    ( 0.0000,  0.0000,  0.0000)
 137 N      3.651805    4.976703   14.337937    ( 0.0000,  0.0000,  0.0000)
 138 N      0.000604   10.898356   14.354626    ( 0.0000,  0.0000,  0.0000)
 139 N      3.658354   10.890870   14.360302    ( 0.0000,  0.0000,  0.0000)
 140 N      0.002472    1.973346   15.970247    ( 0.0000,  0.0000,  0.0000)
 141 N      3.655830    1.969826   15.966705    ( 0.0000,  0.0000,  0.0000)
 142 N     -0.018438    7.942704   15.995504    ( 0.0000,  0.0000,  0.0000)
 143 N      3.685545    7.919696   16.040788    ( 0.0000,  0.0000,  0.0000)
 144 Li     4.420223    6.984764   17.601866    ( 0.0000,  0.0000,  0.0000)

Unit cell:
           periodic     x           y           z      points  spacing
  1. axis:    yes    7.316720    0.000000    0.000000    36     0.2032
  2. axis:    yes    0.000000   11.901200    0.000000    60     0.1984
  3. axis:    yes    0.000000    0.000000   30.459499   150     0.2031

  Lengths:   7.316720  11.901200  30.459499
  Angles:   90.000000  90.000000  90.000000

Effective grid spacing dv^(1/3) = 0.2015

                     log10-error:    total        iterations:
           time      wfs    density  energy       fermi  poisson
iter:   1  21:25:32  -2.48         -506.014885    34            
iter:   2  21:25:39  -3.77  -2.32  -505.983238    34            
iter:   3  21:25:47  -4.61  -2.50  -505.969845    5             
iter:   4  21:25:54  -3.90  -2.59  -505.946430    35            
iter:   5  21:26:02  -4.97  -2.79  -505.943191    4             
iter:   6  21:26:09  -4.47  -2.94  -505.940192    4             
iter:   7  21:26:16  -4.99  -3.22  -505.941233    4             
iter:   8  21:26:24  -4.99  -3.10  -505.939651    4             
iter:   9  21:26:31  -5.83  -3.50  -505.939664    3             
iter:  10  21:26:39  -5.61  -3.55  -505.939678    5             
iter:  11  21:26:46  -6.09  -3.64  -505.939570    4             
iter:  12  21:26:54  -6.60  -3.88  -505.939577    3             
iter:  13  21:27:01  -7.77  -4.01  -505.939573    3             
iter:  14  21:27:09  -6.80  -4.08  -505.939583    4             
iter:  15  21:27:16  -7.08  -4.11  -505.939573    3             
iter:  16  21:27:24  -7.38  -4.38  -505.939576    3             
iter:  17  21:27:31  -7.94  -4.33  -505.939574    3             
iter:  18  21:27:39  -7.62  -4.48  -505.939573    3             
iter:  19  21:27:46  -7.56  -4.66  -505.939573    3             
iter:  20  21:27:54  -8.00  -4.67  -505.939572    3             

Converged after 20 iterations.

Dipole moment: (0.720423, -9.585901, -47.398052) |e|*Ang

Energy contributions relative to reference atoms: (reference = -75445.846558)

Kinetic:       +582.222196
Potential:     -399.108390
External:        +0.000000
XC:            -685.589637
Entropy (-ST):   -0.007492
Local:           -3.459996
--------------------------
Free energy:   -505.943318
Extrapolated:  -505.939572

Fermi level: 0.21596

Showing only first 2 kpts
 Kpt  Band  Eigenvalues  Occupancy
  0   142     -0.62791    0.66667
  0   143     -0.57698    0.66667
  0   144     -0.00439    0.66667
  0   145      0.32537    0.00001

  1   142     -0.72213    0.66667
  1   143     -0.68364    0.66667
  1   144      0.22774    0.15693
  1   145      0.66739    0.00000


No gap

Forces in eV/Ang:
  0 Li    0.00025   -0.00221   -0.02820
  1 Li   -0.00025   -0.00221   -0.02822
  2 Li   -0.00002   -0.00020    0.04105
  3 Li    0.00002    0.00009    0.04108
  4 Li   -0.00017    0.00325   -0.02853
  5 Li    0.00017    0.00324   -0.02855
  6 Li   -0.00017   -0.00257   -0.02834
  7 Li    0.00017   -0.00258   -0.02835
  8 Li   -0.00002   -0.00002    0.04145
  9 Li    0.00002   -0.00029    0.04149
 10 Li    0.00025    0.00345   -0.02824
 11 Li   -0.00025    0.00347   -0.02825
 12 Li   -0.00009    0.00772    0.02173
 13 Li    0.00009    0.00771    0.02162
 14 Li   -0.00002   -0.00771    0.02174
 15 Li    0.00001   -0.00771    0.02164
 16 Li   -0.00009   -0.00021   -0.02076
 17 Li    0.00008   -0.00020   -0.02130
 18 Li   -0.00002    0.00723    0.02151
 19 Li    0.00002    0.00722    0.02138
 20 Li   -0.00009   -0.00736    0.02149
 21 Li    0.00009   -0.00736    0.02135
 22 Li   -0.00009    0.00017   -0.02163
 23 Li    0.00008    0.00017   -0.02089
 24 Li   -0.00049   -0.01359    0.02126
 25 Li    0.00050   -0.01355    0.02090
 26 Li   -0.00022    0.00063    0.00868
 27 Li    0.00022    0.00010    0.00842
 28 Li    0.00049    0.01519    0.02219
 29 Li   -0.00050    0.01517    0.02183
 30 Li    0.00047   -0.01521    0.02213
 31 Li   -0.00047   -0.01527    0.02171
 32 Li   -0.00033   -0.00077    0.00817
 33 Li    0.00032   -0.00028    0.00790
 34 Li   -0.00048    0.01490    0.02129
 35 Li    0.00049    0.01495    0.02089
 36 Li    0.00051    0.00339    0.02611
 37 Li   -0.00049    0.00335    0.02555
 38 Li    0.00032   -0.00284    0.02606
 39 Li   -0.00030   -0.00276    0.02554
 40 Li   -0.00063   -0.00119    0.02425
 41 Li    0.00063   -0.00113    0.02660
 42 Li    0.00018    0.00016    0.02436
 43 Li   -0.00022   -0.00041    0.02358
 44 Li    0.00041   -0.00081    0.02467
 45 Li   -0.00047   -0.00029    0.02381
 46 Li   -0.00071    0.00122    0.02428
 47 Li    0.00070    0.00123    0.02244
 48 Li    0.00159    0.00560    0.00619
 49 Li   -0.00175    0.00612    0.00463
 50 Li   -0.00129    0.00182   -0.00248
 51 Li    0.00143    0.00418   -0.00071
 52 Li   -0.00302   -0.00163    0.01192
 53 Li    0.00304   -0.00187    0.01086
 54 Li   -0.00297   -0.00059    0.01357
 55 Li    0.00294   -0.00093    0.01227
 56 Li   -0.00257   -0.00180   -0.00602
 57 Li    0.00226   -0.00409   -0.00493
 58 Li    0.00157   -0.00373    0.00830
 59 Li   -0.00169   -0.00364    0.00660
 60 Li   -0.00228   -0.00728   -0.00689
 61 Li    0.00211   -0.00757   -0.00869
 62 Li   -0.00258    0.01107   -0.00919
 63 Li    0.00253    0.01252   -0.01025
 64 Li   -0.00251   -0.00610    0.00211
 65 Li    0.00288   -0.00698   -0.01284
 66 Li   -0.00012   -0.01811   -0.01880
 67 Li    0.00067   -0.02180   -0.01900
 68 Li    0.00021    0.01474   -0.01709
 69 Li    0.00087    0.01763   -0.01828
 70 Li   -0.00454    0.00659   -0.01805
 71 Li    0.00360    0.00727   -0.01368
 72 Li   -0.00182    0.01950   -0.00025
 73 Li    0.00266    0.02222   -0.01488
 74 Li   -0.00605    0.02138    0.01996
 75 Li    0.00565    0.00882    0.01017
 76 Li    0.01935    0.00341    0.03534
 77 Li   -0.01913    0.00619    0.02174
 78 Li    0.01862   -0.01833    0.04760
 79 Li   -0.01786   -0.02073    0.03738
 80 Li   -0.01458   -0.02007   -0.03238
 81 Li    0.01995   -0.00921   -0.02292
 82 Li   -0.00093   -0.00628    0.01562
 83 Li    0.00209   -0.00607    0.00381
 84 Li    0.00627   -0.03238    0.01095
 85 Li   -0.00518   -0.05662    0.00601
 86 Li    0.01539    0.03449    0.00822
 87 Li   -0.01747    0.06661    0.01312
 88 Li   -0.01902   -0.06024   -0.01674
 89 Li    0.00603   -0.01706    0.12772
 90 Li   -0.02923   -0.08276   -0.04849
 91 Li    0.03231   -0.08253   -0.07790
 92 Li   -0.03551    0.04471   -0.06849
 93 Li    0.01664    0.00660   -0.05324
 94 Li   -0.02146    0.08070   -0.00441
 95 Li    0.02635    0.05785    0.00186
 96 Li    0.00567   -0.01916    0.02649
 97 Li   -0.00432   -0.02590    0.02869
 98 Li    0.00553    0.02680   -0.02013
 99 Li   -0.00759    0.09046    0.00101
100 Li   -0.09807    0.08314    0.22736
101 Li    0.09758    0.13770    0.32641
102 Li   -0.11563   -0.20648    0.21980
103 Li   -0.71105   -1.43593   -1.50483
104 Li   -0.23703   -0.05066   -0.03522
105 Li    1.63939    1.12964   -1.69538
106 Li   -0.03789    0.18334    0.03914
107 Li    0.01144    0.14598    0.02082
108 N     0.00016   -0.00111    0.02128
109 N    -0.00013   -0.00112    0.02169
110 N    -0.00014   -0.00038    0.02055
111 N     0.00019   -0.00057    0.02009
112 N    -0.00020    0.00061    0.00179
113 N     0.00017    0.00078    0.00226
114 N    -0.00002   -0.00090    0.00269
115 N    -0.00003   -0.00126    0.00345
116 N    -0.00011   -0.00147    0.00316
117 N     0.00010   -0.00187    0.00488
118 N    -0.00027    0.00090    0.00673
119 N     0.00033    0.00079    0.00865
120 N     0.00136    0.00297    0.00033
121 N    -0.00143    0.00334    0.00371
122 N    -0.00129   -0.00338    0.00919
123 N     0.00141   -0.00399    0.01306
124 N    -0.00013   -0.00308    0.00223
125 N     0.00012   -0.00359    0.00792
126 N     0.00013    0.00266    0.00948
127 N     0.00013    0.00342    0.01716
128 N     0.00295    0.00401   -0.02714
129 N    -0.00287    0.00824   -0.01595
130 N    -0.00125   -0.00462    0.00330
131 N     0.00142   -0.00937    0.02094
132 N     0.00133   -0.01235   -0.01592
133 N    -0.00076   -0.01923   -0.00300
134 N    -0.00083    0.00889    0.03106
135 N    -0.00353    0.01824    0.10882
136 N    -0.03255    0.01771   -0.09032
137 N     0.02936    0.04278   -0.12273
138 N     0.00229   -0.02272    0.03886
139 N    -0.00903   -0.09728    0.11580
140 N    -0.00411    0.03616   -0.06364
141 N     0.00372    0.03593   -0.10245
142 N     0.06287   -0.01392    0.07033
143 N     0.08025   -0.12890    0.72213
144 Li   -0.67056    0.14438    2.08446

System changes: positions 

Initializing position-dependent things.

Density initialized from wave functions
        .-----------------.  
       /|                 |  
      / |                 |  
     /  |                 |  
    /   |                 |  
   /    |                 |  
  /     |                 |  
 *      |                 |  
 |      |                 |  
 |      |                 |  
 |      |                 |  
 |      |                 |  
 |      |                 |  
 |      |                 |  
 |      |                 |  
 |      |                 |  
 |      |                 |  
 |      |                 |  
 |      |       Li        |  
 |     Li Li    Li Li     |  
 |     N|   Li NN    Li N |  
 |   Lii|     Lii         |  
 | Li   |   Li            |  
 |N  LiLi  N  LiLi        |  
 Li N N LiLi N N LiLi     |  
 | LiLiN|   LiLiN    Li   |  
 |Li  Li|  Li  Li         |  
 | LiLi |   LiLi          |  
 |     Lii N N  Lii N N   |  
 Li   NN| LiLi NN  LiLi   |  
 | LiLi |   LiLi          |  
 |Lii Li|  Lii Li         |  
 |N  LiLi  N  LiLi        |  
 |  N N LiLi N N LiLi     |  
 LiLi  N| LiLi  N    Li   |  
 |Li Lii|  Li Lii         |  
 | LiLi |   LiLi          |  
 |N    Li--N----Li--------.  
 Li N N/LiLi N N LiLi    /   
 | LiLi     LiLi        /    
 |Lii/     Lii         /     
 |N /      N          /      
 | /   Li       Li   /       
 Li       Li        /        
 *-----------------*         

Positions:
   0 Li     0.000000    0.149598    1.096542    ( 0.0000,  0.0000,  0.0000)
   1 Li     3.658360    0.149598    1.096542    ( 0.0000,  0.0000,  0.0000)
   2 Li     1.829180    1.983573    0.737424    ( 0.0000,  0.0000,  0.0000)
   3 Li     5.487540    1.983573    0.737424    ( 0.0000,  0.0000,  0.0000)
   4 Li     0.000000    3.817429    1.096542    ( 0.0000,  0.0000,  0.0000)
   5 Li     3.658360    3.817429    1.096542    ( 0.0000,  0.0000,  0.0000)
   6 Li     0.000000    6.100198    1.096542    ( 0.0000,  0.0000,  0.0000)
   7 Li     3.658360    6.100198    1.096542    ( 0.0000,  0.0000,  0.0000)
   8 Li     1.829180    7.934173    0.737424    ( 0.0000,  0.0000,  0.0000)
   9 Li     5.487540    7.934173    0.737424    ( 0.0000,  0.0000,  0.0000)
  10 Li     0.000000    9.768029    1.096542    ( 0.0000,  0.0000,  0.0000)
  11 Li     3.658360    9.768029    1.096542    ( 0.0000,  0.0000,  0.0000)
  12 Li     0.000000    0.985776    2.969801    ( 0.0000,  0.0000,  0.0000)
  13 Li     3.658360    0.985776    2.969801    ( 0.0000,  0.0000,  0.0000)
  14 Li     0.000000    2.981370    2.969801    ( 0.0000,  0.0000,  0.0000)
  15 Li     3.658360    2.981370    2.969801    ( 0.0000,  0.0000,  0.0000)
  16 Li     1.829180    4.958873    2.868371    ( 0.0000,  0.0000,  0.0000)
  17 Li     5.487540    4.958873    2.868371    ( 0.0000,  0.0000,  0.0000)
  18 Li     0.000000    6.936376    2.969801    ( 0.0000,  0.0000,  0.0000)
  19 Li     3.658360    6.936376    2.969801    ( 0.0000,  0.0000,  0.0000)
  20 Li     0.000000    8.931970    2.969801    ( 0.0000,  0.0000,  0.0000)
  21 Li     3.658360    8.931970    2.969801    ( 0.0000,  0.0000,  0.0000)
  22 Li     1.829180   10.909473    2.868371    ( 0.0000,  0.0000,  0.0000)
  23 Li     5.487540   10.909473    2.868371    ( 0.0000,  0.0000,  0.0000)
  24 Li     0.000000    0.025588    4.824480    ( 0.0000,  0.0000,  0.0000)
  25 Li     3.658360    0.025588    4.824480    ( 0.0000,  0.0000,  0.0000)
  26 Li     1.829180    1.983573    4.814733    ( 0.0000,  0.0000,  0.0000)
  27 Li     5.487540    1.983573    4.814733    ( 0.0000,  0.0000,  0.0000)
  28 Li     0.000000    3.941439    4.824480    ( 0.0000,  0.0000,  0.0000)
  29 Li     3.658360    3.941439    4.824480    ( 0.0000,  0.0000,  0.0000)
  30 Li     0.000000    5.976188    4.824480    ( 0.0000,  0.0000,  0.0000)
  31 Li     3.658360    5.976188    4.824480    ( 0.0000,  0.0000,  0.0000)
  32 Li     1.829180    7.934173    4.814733    ( 0.0000,  0.0000,  0.0000)
  33 Li     5.487540    7.934173    4.814733    ( 0.0000,  0.0000,  0.0000)
  34 Li     0.000000    9.892039    4.824480    ( 0.0000,  0.0000,  0.0000)
  35 Li     3.658360    9.892039    4.824480    ( 0.0000,  0.0000,  0.0000)
  36 Li     0.000000    0.973161    6.703527    ( 0.0000,  0.0000,  0.0000)
  37 Li     3.658360    0.973161    6.703527    ( 0.0000,  0.0000,  0.0000)
  38 Li     0.000000    2.993985    6.703527    ( 0.0000,  0.0000,  0.0000)
  39 Li     3.658360    2.993985    6.703527    ( 0.0000,  0.0000,  0.0000)
  40 Li     1.829180    4.958873    6.690124    ( 0.0000,  0.0000,  0.0000)
  41 Li     5.487540    4.958873    6.690124    ( 0.0000,  0.0000,  0.0000)
  42 Li     0.000000    6.923761    6.703527    ( 0.0000,  0.0000,  0.0000)
  43 Li     3.658360    6.923761    6.703527    ( 0.0000,  0.0000,  0.0000)
  44 Li     0.000000    8.944585    6.703527    ( 0.0000,  0.0000,  0.0000)
  45 Li     3.658360    8.944585    6.703527    ( 0.0000,  0.0000,  0.0000)
  46 Li     1.829180   10.909473    6.690124    ( 0.0000,  0.0000,  0.0000)
  47 Li     5.487540   10.909473    6.690124    ( 0.0000,  0.0000,  0.0000)
  48 Li     0.000000    0.023445    8.588056    ( 0.0000,  0.0000,  0.0000)
  49 Li     3.658360    0.023445    8.588056    ( 0.0000,  0.0000,  0.0000)
  50 Li     1.829180    1.983573    8.587447    ( 0.0000,  0.0000,  0.0000)
  51 Li     5.487540    1.983573    8.587447    ( 0.0000,  0.0000,  0.0000)
  52 Li     0.000000    3.943701    8.588056    ( 0.0000,  0.0000,  0.0000)
  53 Li     3.658360    3.943701    8.588056    ( 0.0000,  0.0000,  0.0000)
  54 Li     0.000000    5.974045    8.588056    ( 0.0000,  0.0000,  0.0000)
  55 Li     3.658360    5.974045    8.588056    ( 0.0000,  0.0000,  0.0000)
  56 Li     1.829180    7.934173    8.587447    ( 0.0000,  0.0000,  0.0000)
  57 Li     5.487540    7.934173    8.587447    ( 0.0000,  0.0000,  0.0000)
  58 Li     0.000000    9.894301    8.588056    ( 0.0000,  0.0000,  0.0000)
  59 Li     3.658360    9.894301    8.588056    ( 0.0000,  0.0000,  0.0000)
  60 Li     0.000000    0.973280   10.477458    ( 0.0000,  0.0000,  0.0000)
  61 Li     3.658360    0.973280   10.477458    ( 0.0000,  0.0000,  0.0000)
  62 Li     0.000000    2.993747   10.477458    ( 0.0000,  0.0000,  0.0000)
  63 Li     3.658360    2.993747   10.477458    ( 0.0000,  0.0000,  0.0000)
  64 Li     1.829180    4.958873   10.488728    ( 0.0000,  0.0000,  0.0000)
  65 Li     5.487540    4.958873   10.488728    ( 0.0000,  0.0000,  0.0000)
  66 Li     0.000000    6.923880   10.477458    ( 0.0000,  0.0000,  0.0000)
  67 Li     3.658360    6.923880   10.477458    ( 0.0000,  0.0000,  0.0000)
  68 Li     0.000000    8.944347   10.477458    ( 0.0000,  0.0000,  0.0000)
  69 Li     3.658360    8.944347   10.477458    ( 0.0000,  0.0000,  0.0000)
  70 Li     1.829180   10.909473   10.488728    ( 0.0000,  0.0000,  0.0000)
  71 Li     5.487540   10.909473   10.488728    ( 0.0000,  0.0000,  0.0000)
  72 Li     0.000000    0.024278   12.359551    ( 0.0000,  0.0000,  0.0000)
  73 Li     3.658360    0.024278   12.359551    ( 0.0000,  0.0000,  0.0000)
  74 Li     1.829180    1.983573   12.373562    ( 0.0000,  0.0000,  0.0000)
  75 Li     5.487540    1.983573   12.373562    ( 0.0000,  0.0000,  0.0000)
  76 Li     0.000000    3.942749   12.359551    ( 0.0000,  0.0000,  0.0000)
  77 Li     3.658360    3.942749   12.359551    ( 0.0000,  0.0000,  0.0000)
  78 Li     0.000000    5.974878   12.359551    ( 0.0000,  0.0000,  0.0000)
  79 Li     3.658360    5.974878   12.359551    ( 0.0000,  0.0000,  0.0000)
  80 Li     1.829180    7.934173   12.373562    ( 0.0000,  0.0000,  0.0000)
  81 Li     5.487540    7.934173   12.373562    ( 0.0000,  0.0000,  0.0000)
  82 Li     0.000000    9.893349   12.359551    ( 0.0000,  0.0000,  0.0000)
  83 Li     3.658360    9.893349   12.359551    ( 0.0000,  0.0000,  0.0000)
  84 Li     0.000000    0.986490   14.223977    ( 0.0000,  0.0000,  0.0000)
  85 Li     3.658360    0.986490   14.223977    ( 0.0000,  0.0000,  0.0000)
  86 Li     0.000000    2.980656   14.223977    ( 0.0000,  0.0000,  0.0000)
  87 Li     3.658360    2.980656   14.223977    ( 0.0000,  0.0000,  0.0000)
  88 Li     1.829180    4.958873   14.335459    ( 0.0000,  0.0000,  0.0000)
  89 Li     5.487540    4.958873   14.335459    ( 0.0000,  0.0000,  0.0000)
  90 Li     0.000000    6.937090   14.223977    ( 0.0000,  0.0000,  0.0000)
  91 Li     3.658360    6.937090   14.223977    ( 0.0000,  0.0000,  0.0000)
  92 Li     0.000000    8.931256   14.223977    ( 0.0000,  0.0000,  0.0000)
  93 Li     3.658360    8.931256   14.223977    ( 0.0000,  0.0000,  0.0000)
  94 Li     1.829180   10.909473   14.335459    ( 0.0000,  0.0000,  0.0000)
  95 Li     5.487540   10.909473   14.335459    ( 0.0000,  0.0000,  0.0000)
  96 Li     0.000000    0.150074   16.101196    ( 0.0000,  0.0000,  0.0000)
  97 Li     3.658360    0.150074   16.101196    ( 0.0000,  0.0000,  0.0000)
  98 Li     1.829180    1.983573   16.466405    ( 0.0000,  0.0000,  0.0000)
  99 Li     5.487540    1.983573   16.466405    ( 0.0000,  0.0000,  0.0000)
 100 Li     0.000000    3.816953   16.101196    ( 0.0000,  0.0000,  0.0000)
 101 Li     3.658360    3.816953   16.101196    ( 0.0000,  0.0000,  0.0000)
 102 Li     0.000000    6.100674   16.101196    ( 0.0000,  0.0000,  0.0000)
 103 Li     3.658360    6.100674   16.101196    ( 0.0000,  0.0000,  0.0000)
 104 Li     1.829180    7.934173   16.466405    ( 0.0000,  0.0000,  0.0000)
 105 Li     5.487540    7.934173   16.466405    ( 0.0000,  0.0000,  0.0000)
 106 Li     0.000000    9.767553   16.101196    ( 0.0000,  0.0000,  0.0000)
 107 Li     3.658360    9.767553   16.101196    ( 0.0000,  0.0000,  0.0000)
 108 N      0.000000    1.983573    1.228127    ( 0.0000,  0.0000,  0.0000)
 109 N      3.658360    1.983573    1.228127    ( 0.0000,  0.0000,  0.0000)
 110 N      0.000000    7.934173    1.228127    ( 0.0000,  0.0000,  0.0000)
 111 N      3.658360    7.934173    1.228127    ( 0.0000,  0.0000,  0.0000)
 112 N      0.000000    4.958873    2.852227    ( 0.0000,  0.0000,  0.0000)
 113 N      3.658360    4.958873    2.852227    ( 0.0000,  0.0000,  0.0000)
 114 N      0.000000   10.909473    2.852227    ( 0.0000,  0.0000,  0.0000)
 115 N      3.658360   10.909473    2.852227    ( 0.0000,  0.0000,  0.0000)
 116 N      0.000000    1.983573    4.859204    ( 0.0000,  0.0000,  0.0000)
 117 N      3.658360    1.983573    4.859204    ( 0.0000,  0.0000,  0.0000)
 118 N      0.000000    7.934173    4.859204    ( 0.0000,  0.0000,  0.0000)
 119 N      3.658360    7.934173    4.859204    ( 0.0000,  0.0000,  0.0000)
 120 N      0.000000    4.958873    6.693780    ( 0.0000,  0.0000,  0.0000)
 121 N      3.658360    4.958873    6.693780    ( 0.0000,  0.0000,  0.0000)
 122 N      0.000000   10.909473    6.693780    ( 0.0000,  0.0000,  0.0000)
 123 N      3.658360   10.909473    6.693780    ( 0.0000,  0.0000,  0.0000)
 124 N      0.000157    1.982443    8.582247    ( 0.0000,  0.0000,  0.0000)
 125 N      3.658222    1.982420    8.582814    ( 0.0000,  0.0000,  0.0000)
 126 N      0.000076    7.935215    8.584284    ( 0.0000,  0.0000,  0.0000)
 127 N      3.658246    7.935254    8.585331    ( 0.0000,  0.0000,  0.0000)
 128 N     -0.000964    4.961349   10.492001    ( 0.0000,  0.0000,  0.0000)
 129 N      3.659369    4.961906   10.494016    ( 0.0000,  0.0000,  0.0000)
 130 N      0.000313   10.906812   10.498144    ( 0.0000,  0.0000,  0.0000)
 131 N      3.657918   10.906268   10.500054    ( 0.0000,  0.0000,  0.0000)
 132 N     -0.001068    1.977896   12.337182    ( 0.0000,  0.0000,  0.0000)
 133 N      3.659362    1.977670   12.339347    ( 0.0000,  0.0000,  0.0000)
 134 N      0.000398    7.939433   12.351627    ( 0.0000,  0.0000,  0.0000)
 135 N      3.658703    7.939734   12.364179    ( 0.0000,  0.0000,  0.0000)
 136 N      0.008664    4.972824   14.329261    ( 0.0000,  0.0000,  0.0000)
 137 N      3.648343    4.988703   14.328866    ( 0.0000,  0.0000,  0.0000)
 138 N      0.001029   10.890933   14.359418    ( 0.0000,  0.0000,  0.0000)
 139 N      3.658153   10.877177   14.370265    ( 0.0000,  0.0000,  0.0000)
 140 N      0.003929    1.967738   15.963597    ( 0.0000,  0.0000,  0.0000)
 141 N      3.654329    1.962012   15.957026    ( 0.0000,  0.0000,  0.0000)
 142 N     -0.028606    7.947700   16.007547    ( 0.0000,  0.0000,  0.0000)
[...]
  48 Li     0.000000    0.023445    8.588056    ( 0.0000,  0.0000,  0.0000)
  49 Li     3.658360    0.023445    8.588056    ( 0.0000,  0.0000,  0.0000)
  50 Li     1.829180    1.983573    8.587447    ( 0.0000,  0.0000,  0.0000)
  51 Li     5.487540    1.983573    8.587447    ( 0.0000,  0.0000,  0.0000)
  52 Li     0.000000    3.943701    8.588056    ( 0.0000,  0.0000,  0.0000)
  53 Li     3.658360    3.943701    8.588056    ( 0.0000,  0.0000,  0.0000)
  54 Li     0.000000    5.974045    8.588056    ( 0.0000,  0.0000,  0.0000)
  55 Li     3.658360    5.974045    8.588056    ( 0.0000,  0.0000,  0.0000)
  56 Li     1.829180    7.934173    8.587447    ( 0.0000,  0.0000,  0.0000)
  57 Li     5.487540    7.934173    8.587447    ( 0.0000,  0.0000,  0.0000)
  58 Li     0.000000    9.894301    8.588056    ( 0.0000,  0.0000,  0.0000)
  59 Li     3.658360    9.894301    8.588056    ( 0.0000,  0.0000,  0.0000)
  60 Li     0.000000    0.973280   10.477458    ( 0.0000,  0.0000,  0.0000)
  61 Li     3.658360    0.973280   10.477458    ( 0.0000,  0.0000,  0.0000)
  62 Li     0.000000    2.993747   10.477458    ( 0.0000,  0.0000,  0.0000)
  63 Li     3.658360    2.993747   10.477458    ( 0.0000,  0.0000,  0.0000)
  64 Li     1.829180    4.958873   10.488728    ( 0.0000,  0.0000,  0.0000)
  65 Li     5.487540    4.958873   10.488728    ( 0.0000,  0.0000,  0.0000)
  66 Li     0.000000    6.923880   10.477458    ( 0.0000,  0.0000,  0.0000)
  67 Li     3.658360    6.923880   10.477458    ( 0.0000,  0.0000,  0.0000)
  68 Li     0.000000    8.944347   10.477458    ( 0.0000,  0.0000,  0.0000)
  69 Li     3.658360    8.944347   10.477458    ( 0.0000,  0.0000,  0.0000)
  70 Li     1.829180   10.909473   10.488728    ( 0.0000,  0.0000,  0.0000)
  71 Li     5.487540   10.909473   10.488728    ( 0.0000,  0.0000,  0.0000)
  72 Li     0.000000    0.024278   12.359551    ( 0.0000,  0.0000,  0.0000)
  73 Li     3.658360    0.024278   12.359551    ( 0.0000,  0.0000,  0.0000)
  74 Li     1.829180    1.983573   12.373562    ( 0.0000,  0.0000,  0.0000)
  75 Li     5.487540    1.983573   12.373562    ( 0.0000,  0.0000,  0.0000)
  76 Li     0.000000    3.942749   12.359551    ( 0.0000,  0.0000,  0.0000)
  77 Li     3.658360    3.942749   12.359551    ( 0.0000,  0.0000,  0.0000)
  78 Li     0.000000    5.974878   12.359551    ( 0.0000,  0.0000,  0.0000)
  79 Li     3.658360    5.974878   12.359551    ( 0.0000,  0.0000,  0.0000)
  80 Li     1.829180    7.934173   12.373562    ( 0.0000,  0.0000,  0.0000)
  81 Li     5.487540    7.934173   12.373562    ( 0.0000,  0.0000,  0.0000)
  82 Li     0.000000    9.893349   12.359551    ( 0.0000,  0.0000,  0.0000)
  83 Li     3.658360    9.893349   12.359551    ( 0.0000,  0.0000,  0.0000)
  84 Li     0.000000    0.986490   14.223977    ( 0.0000,  0.0000,  0.0000)
  85 Li     3.658360    0.986490   14.223977    ( 0.0000,  0.0000,  0.0000)
  86 Li     0.000000    2.980656   14.223977    ( 0.0000,  0.0000,  0.0000)
  87 Li     3.658360    2.980656   14.223977    ( 0.0000,  0.0000,  0.0000)
  88 Li     1.829180    4.958873   14.335459    ( 0.0000,  0.0000,  0.0000)
  89 Li     5.487540    4.958873   14.335459    ( 0.0000,  0.0000,  0.0000)
  90 Li     0.000000    6.937090   14.223977    ( 0.0000,  0.0000,  0.0000)
  91 Li     3.658360    6.937090   14.223977    ( 0.0000,  0.0000,  0.0000)
  92 Li     0.000000    8.931256   14.223977    ( 0.0000,  0.0000,  0.0000)
  93 Li     3.658360    8.931256   14.223977    ( 0.0000,  0.0000,  0.0000)
  94 Li     1.829180   10.909473   14.335459    ( 0.0000,  0.0000,  0.0000)
  95 Li     5.487540   10.909473   14.335459    ( 0.0000,  0.0000,  0.0000)
  96 Li     0.000000    0.150074   16.101196    ( 0.0000,  0.0000,  0.0000)
  97 Li     3.658360    0.150074   16.101196    ( 0.0000,  0.0000,  0.0000)
  98 Li     1.829180    1.983573   16.466405    ( 0.0000,  0.0000,  0.0000)
  99 Li     5.487540    1.983573   16.466405    ( 0.0000,  0.0000,  0.0000)
 100 Li     0.000000    3.816953   16.101196    ( 0.0000,  0.0000,  0.0000)
 101 Li     3.658360    3.816953   16.101196    ( 0.0000,  0.0000,  0.0000)
 102 Li     0.000000    6.100674   16.101196    ( 0.0000,  0.0000,  0.0000)
 103 Li     3.658360    6.100674   16.101196    ( 0.0000,  0.0000,  0.0000)
 104 Li     1.829180    7.934173   16.466405    ( 0.0000,  0.0000,  0.0000)
 105 Li     5.487540    7.934173   16.466405    ( 0.0000,  0.0000,  0.0000)
 106 Li     0.000000    9.767553   16.101196    ( 0.0000,  0.0000,  0.0000)
 107 Li     3.658360    9.767553   16.101196    ( 0.0000,  0.0000,  0.0000)
 108 N      0.000000    1.983573    1.228127    ( 0.0000,  0.0000,  0.0000)
 109 N      3.658360    1.983573    1.228127    ( 0.0000,  0.0000,  0.0000)
 110 N      0.000000    7.934173    1.228127    ( 0.0000,  0.0000,  0.0000)
 111 N      3.658360    7.934173    1.228127    ( 0.0000,  0.0000,  0.0000)
 112 N      0.000000    4.958873    2.852227    ( 0.0000,  0.0000,  0.0000)
 113 N      3.658360    4.958873    2.852227    ( 0.0000,  0.0000,  0.0000)
 114 N      0.000000   10.909473    2.852227    ( 0.0000,  0.0000,  0.0000)
 115 N      3.658360   10.909473    2.852227    ( 0.0000,  0.0000,  0.0000)
 116 N      0.000000    1.983573    4.859204    ( 0.0000,  0.0000,  0.0000)
 117 N      3.658360    1.983573    4.859204    ( 0.0000,  0.0000,  0.0000)
 118 N      0.000000    7.934173    4.859204    ( 0.0000,  0.0000,  0.0000)
 119 N      3.658360    7.934173    4.859204    ( 0.0000,  0.0000,  0.0000)
 120 N      0.000000    4.958873    6.693780    ( 0.0000,  0.0000,  0.0000)
 121 N      3.658360    4.958873    6.693780    ( 0.0000,  0.0000,  0.0000)
 122 N      0.000000   10.909473    6.693780    ( 0.0000,  0.0000,  0.0000)
 123 N      3.658360   10.909473    6.693780    ( 0.0000,  0.0000,  0.0000)
 124 N      0.000003    1.982958    8.583534    ( 0.0000,  0.0000,  0.0000)
 125 N      3.658343    1.983574    8.591308    ( 0.0000,  0.0000,  0.0000)
 126 N     -0.000022    7.934724    8.588016    ( 0.0000,  0.0000,  0.0000)
 127 N      3.658376    7.934167    8.600209    ( 0.0000,  0.0000,  0.0000)
 128 N      0.000071    4.959936   10.490302    ( 0.0000,  0.0000,  0.0000)
 129 N      3.658315    4.964196   10.510198    ( 0.0000,  0.0000,  0.0000)
 130 N     -0.000040   10.908180   10.495078    ( 0.0000,  0.0000,  0.0000)
 131 N      3.658397   10.903988   10.508867    ( 0.0000,  0.0000,  0.0000)
 132 N     -0.000027    1.981189   12.334438    ( 0.0000,  0.0000,  0.0000)
 133 N      3.658394    1.983217   12.347785    ( 0.0000,  0.0000,  0.0000)
 134 N      0.000038    7.936342   12.336381    ( 0.0000,  0.0000,  0.0000)
 135 N      3.658275    7.934422   12.400878    ( 0.0000,  0.0000,  0.0000)
 136 N     -0.000562    4.965431   14.302124    ( 0.0000,  0.0000,  0.0000)
 137 N      3.658541    5.001545   14.377374    ( 0.0000,  0.0000,  0.0000)
 138 N      0.000054   10.902301   14.343681    ( 0.0000,  0.0000,  0.0000)
 139 N      3.657959   10.867165   14.377048    ( 0.0000,  0.0000,  0.0000)
 140 N      0.000172    1.986143   15.962951    ( 0.0000,  0.0000,  0.0000)
 141 N      3.658136    1.983832   15.949450    ( 0.0000,  0.0000,  0.0000)
 142 N     -0.000400    7.931658   15.957538    ( 0.0000,  0.0000,  0.0000)
 143 N      3.657925    7.932900   16.364740    ( 0.0000,  0.0000,  0.0000)
 144 Li     3.654930    7.924910   18.240096    ( 0.0000,  0.0000,  0.0000)

Unit cell:
           periodic     x           y           z      points  spacing
  1. axis:    yes    7.316720    0.000000    0.000000    36     0.2032
  2. axis:    yes    0.000000   11.901200    0.000000    60     0.1984
  3. axis:    yes    0.000000    0.000000   30.459499   150     0.2031

  Lengths:   7.316720  11.901200  30.459499
  Angles:   90.000000  90.000000  90.000000

Effective grid spacing dv^(1/3) = 0.2015

                     log10-error:    total        iterations:
           time      wfs    density  energy       fermi  poisson
iter:   1  22:38:44  -4.08         -507.133674    4             
iter:   2  22:38:53  -5.40  -3.15  -507.132926    5             
iter:   3  22:39:01  -6.21  -3.23  -507.132600    4             
iter:   4  22:39:10  -5.47  -3.34  -507.132283    4             
iter:   5  22:39:18  -6.30  -3.44  -507.132148    4             
iter:   6  22:39:27  -6.17  -3.55  -507.132057    4             
iter:   7  22:39:35  -7.26  -3.70  -507.131968    4             
iter:   8  22:39:44  -6.89  -4.00  -507.131965    3             
iter:   9  22:39:52  -7.49  -4.11  -507.131953    3             
iter:  10  22:40:01  -8.57  -4.24  -507.131952    3             

Converged after 10 iterations.

Dipole moment: (0.055411, -10.266336, -47.431561) |e|*Ang

Energy contributions relative to reference atoms: (reference = -75445.846558)

Kinetic:       +578.835973
Potential:     -398.155909
External:        +0.000000
XC:            -684.353467
Entropy (-ST):   -0.009133
Local:           -3.453982
--------------------------
Free energy:   -507.136518
Extrapolated:  -507.131952

Fermi level: 0.40093

Showing only first 2 kpts
 Kpt  Band  Eigenvalues  Occupancy
  0   142     -0.62011    0.66667
  0   143     -0.56276    0.66667
  0   144      0.09006    0.66667
  0   145      0.41573    0.12363

  1   142     -0.73230    0.66667
  1   143     -0.67398    0.66667
  1   144      0.41787    0.10348
  1   145      0.68781    0.00000


No gap

Forces in eV/Ang:
  0 Li    0.00000   -0.00705   -0.03825
  1 Li   -0.00000   -0.00701   -0.03849
  2 Li   -0.00017   -0.00012    0.03930
  3 Li    0.00017   -0.00012    0.03930
  4 Li   -0.00000    0.00793   -0.03836
  5 Li    0.00000    0.00794   -0.03855
  6 Li   -0.00000   -0.00738   -0.03819
  7 Li    0.00000   -0.00742   -0.03843
  8 Li   -0.00016   -0.00009    0.03982
  9 Li    0.00016   -0.00009    0.03982
 10 Li    0.00000    0.00839   -0.03831
 11 Li   -0.00000    0.00838   -0.03860
 12 Li    0.00000    0.00489    0.01342
 13 Li   -0.00000    0.00471    0.01217
 14 Li   -0.00000   -0.00492    0.01348
 15 Li    0.00000   -0.00477    0.01219
 16 Li   -0.00089   -0.00065   -0.02990
 17 Li    0.00089   -0.00065   -0.02990
 18 Li    0.00000    0.00385    0.01264
 19 Li   -0.00000    0.00349    0.01104
 20 Li    0.00000   -0.00397    0.01260
 21 Li   -0.00000   -0.00358    0.01103
 22 Li   -0.00083    0.00060   -0.02998
 23 Li    0.00083    0.00060   -0.02998
 24 Li    0.00000   -0.01465    0.00966
 25 Li   -0.00000   -0.01475    0.00603
 26 Li   -0.00255    0.00003   -0.00262
 27 Li    0.00255    0.00003   -0.00262
 28 Li   -0.00000    0.01569    0.00993
 29 Li    0.00000    0.01550    0.00625
 30 Li   -0.00000   -0.01655    0.00987
 31 Li    0.00000   -0.01706    0.00570
 32 Li   -0.00338   -0.00022   -0.00408
 33 Li    0.00338   -0.00022   -0.00407
 34 Li    0.00000    0.01681    0.00968
 35 Li   -0.00000    0.01761    0.00556
 36 Li   -0.00000    0.00303    0.01845
 37 Li   -0.00001    0.00291    0.01601
 38 Li    0.00001   -0.00322    0.01859
 39 Li   -0.00002   -0.00275    0.01605
 40 Li   -0.00713   -0.00277    0.01401
 41 Li    0.00713   -0.00275    0.01398
 42 Li   -0.00003   -0.00059    0.01784
 43 Li    0.00002   -0.00488    0.01475
 44 Li   -0.00004    0.00058    0.01802
 45 Li    0.00003    0.00462    0.01504
 46 Li   -0.00664    0.00277    0.01346
 47 Li    0.00664    0.00276    0.01349
 48 Li   -0.00007    0.00279    0.00424
 49 Li    0.00006    0.00601    0.00331
 50 Li   -0.01070    0.00087   -0.00431
 51 Li    0.01053    0.00081   -0.00430
 52 Li    0.00010   -0.00333    0.00539
 53 Li   -0.00008   -0.00540    0.00491
 54 Li    0.00007   -0.00010    0.01001
 55 Li   -0.00005    0.00170    0.01242
 56 Li   -0.01557   -0.00083   -0.00513
 57 Li    0.01549   -0.00076   -0.00517
 58 Li   -0.00010   -0.00005    0.00939
 59 Li    0.00009   -0.00268    0.01127
 60 Li   -0.00008   -0.00864   -0.01270
 61 Li    0.00008   -0.01524   -0.00120
 62 Li    0.00003    0.00817   -0.01527
 63 Li   -0.00001    0.01646   -0.00103
 64 Li   -0.01985   -0.00868   -0.01372
 65 Li    0.02019   -0.00871   -0.01357
 66 Li    0.00010   -0.01613   -0.02705
 67 Li   -0.00011   -0.02398   -0.00600
 68 Li   -0.00001    0.01628   -0.02479
 69 Li   -0.00002    0.02304   -0.00652
 70 Li   -0.01789    0.00837   -0.01476
 71 Li    0.01785    0.00840   -0.01485
 72 Li    0.00003    0.00599    0.00958
 73 Li   -0.00027    0.01392   -0.01847
 74 Li   -0.02465    0.00240    0.01021
 75 Li    0.02475    0.00263    0.01016
 76 Li   -0.00052   -0.00275    0.01295
 77 Li    0.00028   -0.01349   -0.01756
 78 Li   -0.00044   -0.01049    0.02501
 79 Li    0.00015   -0.00100    0.04090
 80 Li   -0.05843   -0.00280   -0.01602
 81 Li    0.05788   -0.00303   -0.01596
 82 Li    0.00010    0.00727    0.02284
 83 Li   -0.00039    0.00149    0.03865
 84 Li    0.00032   -0.03133   -0.01771
 85 Li   -0.00061   -0.11526    0.00601
 86 Li   -0.00038    0.03297   -0.05088
 87 Li    0.00009    0.11691    0.00732
 88 Li   -0.04634   -0.05240    0.00006
 89 Li    0.04148   -0.05236   -0.00007
 90 Li   -0.00073   -0.07877   -0.14717
 91 Li   -0.00001   -0.04132   -0.02564
 92 Li   -0.00004    0.07432   -0.11383
 93 Li   -0.00063    0.03950   -0.02704
 94 Li   -0.04317    0.05302    0.01387
 95 Li    0.03876    0.05282    0.01382
 96 Li    0.00049   -0.01693    0.10493
 97 Li   -0.00079   -0.05455    0.17488
 98 Li    0.01447    0.00340   -0.04135
 99 Li   -0.01484    0.00356   -0.04224
100 Li   -0.00015    0.05231    0.08928
101 Li   -0.00021    0.06224    0.17996
102 Li   -0.00041   -0.14904    0.11095
103 Li    0.00014   -0.32544    0.13773
104 Li   -0.92600   -0.00231   -0.24056
105 Li    0.91369   -0.00245   -0.23438
106 Li    0.00019    0.11592    0.12635
107 Li   -0.00043    0.30620    0.13938
108 N     0.00000   -0.00077    0.03391
109 N     0.00000   -0.00077    0.03497
110 N    -0.00000   -0.00072    0.03239
111 N    -0.00000   -0.00072    0.03288
112 N    -0.00000    0.00095    0.03276
113 N     0.00000    0.00231    0.03859
114 N    -0.00000   -0.00135    0.03364
115 N    -0.00001   -0.00263    0.03915
116 N    -0.00000   -0.00081    0.03394
117 N     0.00000   -0.00043    0.04973
118 N     0.00001    0.00011    0.03983
119 N    -0.00001   -0.00031    0.05809
120 N    -0.00003    0.00508    0.02416
121 N     0.00002    0.01124    0.06232
122 N     0.00004   -0.00537    0.02953
123 N    -0.00004   -0.01142    0.06257
124 N    -0.00009    0.00083    0.00112
125 N     0.00026   -0.00050    0.01155
126 N     0.00033   -0.00078   -0.01470
127 N    -0.00023    0.00007    0.01963
128 N    -0.00095   -0.00048   -0.00052
129 N     0.00067   -0.00141    0.01137
130 N     0.00058    0.00166   -0.01041
131 N    -0.00047    0.00179    0.01628
132 N     0.00052   -0.00011   -0.00159
133 N    -0.00050    0.00037   -0.00928
134 N    -0.00079    0.00154   -0.00219
135 N     0.00154    0.00156   -0.00169
136 N     0.00869   -0.00405    0.00352
137 N    -0.00352   -0.00560    0.01221
138 N    -0.00223    0.00608   -0.01209
139 N     0.00692    0.00283    0.00719
140 N    -0.00188   -0.01968    0.00898
141 N     0.00226   -0.01610    0.00435
142 N     0.00399    0.02041    0.00098
143 N     0.00444    0.03426    0.01940
144 Li    0.00386   -0.00097   -0.00836

Timing:                                      incl.     excl.
-------------------------------------------------------------------
Density initialized from wave functions:    60.468    60.467   1.2% |
 Symmetrize density:                         0.001     0.001   0.0% |
Forces:                                    295.427   295.427   6.0% |-|
Hamiltonian:                                63.962     0.438   0.0% |
 Atomic:                                    10.015     2.855   0.1% |
  XC Correction:                             7.160     7.160   0.1% |
 Calculate atomic Hamiltonians:             48.183    48.183   1.0% |
 Communicate:                                0.098     0.098   0.0% |
 Initialize Hamiltonian:                     0.000     0.000   0.0% |
 Poisson:                                    0.022     0.022   0.0% |
 XC 3D grid:                                 5.206     5.206   0.1% |
LCAO initialization:                        19.539     0.067   0.0% |
 LCAO eigensolver:                           1.659     0.005   0.0% |
  Calculate projections:                     0.014     0.014   0.0% |
  DenseAtomicCorrection:                     0.045     0.045   0.0% |
  Distribute overlap matrix:                 0.322     0.322   0.0% |
  Orbital Layouts:                           0.751     0.751   0.0% |
  Potential matrix:                          0.309     0.309   0.0% |
  Sum over cells:                            0.213     0.213   0.0% |
 LCAO to grid:                              16.389    16.389   0.3% |
 Set positions (LCAO WFS):                   1.424     0.432   0.0% |
  Basic WFS set positions:                   0.007     0.007   0.0% |
  Basis functions set positions:             0.001     0.001   0.0% |
  P tci:                                     0.314     0.314   0.0% |
  ST tci:                                    0.146     0.146   0.0% |
  mktci:                                     0.523     0.523   0.0% |
PWDescriptor:                                0.445     0.445   0.0% |
Redistribute:                                0.078     0.078   0.0% |
SCF-cycle:                                4429.260     1.647   0.0% |
 Davidson:                                2580.438   789.024  16.0% |-----|
  Apply H:                                 291.445   286.137   5.8% |-|
   HMM T:                                    5.308     5.308   0.1% |
  Subspace diag:                           400.390     0.299   0.0% |
   calc_h_matrix:                          320.579    31.349   0.6% |
    Apply H:                               289.230   282.812   5.7% |-|
     HMM T:                                  6.418     6.418   0.1% |
   diagonalize:                             18.670    18.670   0.4% |
   rotate_psi:                              60.843    60.843   1.2% |
  calc. matrices:                          790.729   213.048   4.3% |-|
   Apply H:                                577.680   566.131  11.5% |----|
    HMM T:                                  11.549    11.549   0.2% |
  diagonalize:                             191.696   191.696   3.9% |-|
  rotate_psi:                              117.154   117.154   2.4% ||
 Density:                                  902.107     0.013   0.0% |
  Atomic density matrices:                   5.059     5.059   0.1% |
  Mix:                                     745.262   745.262  15.1% |-----|
  Multipole moments:                         0.204     0.204   0.0% |
  Pseudo density:                          151.568   151.557   3.1% ||
   Symmetrize density:                       0.011     0.011   0.0% |
 Hamiltonian:                              928.533     5.967   0.1% |
  Atomic:                                  139.036    40.840   0.8% |
   XC Correction:                           98.196    98.196   2.0% ||
  Calculate atomic Hamiltonians:           707.356   707.356  14.3% |-----|
  Communicate:                               3.264     3.264   0.1% |
  Poisson:                                   0.299     0.299   0.0% |
  XC 3D grid:                               72.611    72.611   1.5% ||
 Orthonormalize:                            16.535     0.028   0.0% |
  calc_s_matrix:                             1.076     1.076   0.0% |
  inverse-cholesky:                          0.480     0.480   0.0% |
  projections:                              12.684    12.684   0.3% |
  rotate_psi_s:                              2.268     2.268   0.0% |
Set symmetry:                                0.001     0.001   0.0% |
Other:                                      64.122    64.122   1.3% ||
-------------------------------------------------------------------
Total:                                              4933.301 100.0%

Memory usage: 832.98 MiB
Date: Wed Jul  7 22:40:10 2021
