
  ___ ___ ___ _ _ _  
 |   |   |_  | | | | 
 | | | | | . | | | | 
 |__ |  _|___|_____|  20.1.0
 |___|_|             

User:   jngwng01@n716021
Date:   Mon Sep  6 08:23:23 2021
Arch:   x86_64
Pid:    12732
Python: 3.8.5
gpaw:   /uls/7/gpaw-20.1.0/lib/python3.8/site-packages/gpaw-20.1.0-py3.8-linux-x86_64.egg/gpaw
_gpaw:  /uls/7/gpaw-20.1.0/lib/python3.8/site-packages/gpaw-20.1.0-py3.8-linux-x86_64.egg/
        _gpaw.cpython-38-x86_64-linux-gnu.so
ase:    /uls/7/gpaw-20.1.0/lib/python3.8/site-packages/ase-3.20.1-py3.8.egg/ase (version 3.20.1)
numpy:  /uls/7/gpaw-20.1.0/lib/python3.8/site-packages/numpy (version 1.19.2)
scipy:  /uls/7/gpaw-20.1.0/lib/python3.8/site-packages/scipy-1.5.2-py3.8-linux-x86_64.egg/scipy (version 1.5.2)
libxc:  4.3.4
units:  Angstrom and eV
cores: 32
OMP_NUM_THREADS: 1

Input parameters:
  convergence: {eigenstates: 1e-08}
  kpts: [5 6 1]
  mode: {ecut: 500.0,
         gammacentered: False,
         name: pw}
  occupations: {name: fermi-dirac,
                width: 0.03}
  random: True
  xc: {backend: libvdwxc,
       libvdwxc_name: vdW-DF-cx,
       name: vdW-DF-cx,
       semilocal_xc: GGA_X_LV_RPW86+LDA_C_PW,
       setup_name: PBE,
       vdwcoef: 1.0}

System changes: positions, numbers, cell, pbc, initial_charges, initial_magmoms 

Initialize ...

Li-setup:
  name: Lithium
  id: 830b4218f175192f93f959cfc0aad614
  Z: 3
  valence: 1
  core: 2
  charge: 0.0
  file: /uls/7/gpaw-20.1.0/setups/gpaw-setups-0.9.20000/Li.PBE.gz
  compensation charges: gauss, rc=0.33, lmax=2
  cutoffs: 1.91(filt), 2.55(core),
  valence states:
                energy  radius
    2s(1.00)    -2.874   1.058
    2p(0.00)    -1.090   1.058
    *s          24.337   1.058

  Using partial waves for Li as LCAO basis

N-setup:
  name: Nitrogen
  id: f7500608b86eaa90eef8b1d9a670dc53
  Z: 7
  valence: 5
  core: 2
  charge: 0.0
  file: /uls/7/gpaw-20.1.0/setups/gpaw-setups-0.9.20000/N.PBE.gz
  compensation charges: gauss, rc=0.18, lmax=2
  cutoffs: 1.11(filt), 0.96(core),
  valence states:
                energy  radius
    2s(2.00)   -18.583   0.603
    2p(3.00)    -7.089   0.529
    *s           8.629   0.603
    *p          20.123   0.529
    *d           0.000   0.577

  Using partial waves for N as LCAO basis

Reference energy: -25283.807400

Spin-paired calculation

Occupation numbers:
  Fermi-Dirac: width=0.0300 eV

Convergence criteria:
  Maximum total energy change: 0.0005 eV / electron
  Maximum integral of absolute density change: 0.0001 electrons
  Maximum integral of absolute eigenstate change: 1e-08 eV^2
  Maximum number of iterations: 333

Symmetries present (total): 1

  ( 1  0  0)
  ( 0  1  0)
  ( 0  0  1)

30 k-points: 5 x 6 x 1 Monkhorst-Pack grid
15 k-points in the irreducible part of the Brillouin zone
       k-points in crystal coordinates                weights
   0:     0.00000000    0.08333333    0.00000000          2/30
   1:     0.00000000    0.25000000    0.00000000          2/30
   2:     0.00000000    0.41666667    0.00000000          2/30
   3:     0.20000000   -0.41666667    0.00000000          2/30
   4:     0.20000000   -0.25000000    0.00000000          2/30
   5:     0.20000000   -0.08333333    0.00000000          2/30
   6:     0.20000000    0.08333333    0.00000000          2/30
   7:     0.20000000    0.25000000    0.00000000          2/30
   8:     0.20000000    0.41666667    0.00000000          2/30
   9:     0.40000000   -0.41666667    0.00000000          2/30
          ...
  14:     0.40000000    0.41666667    0.00000000          2/30

Wave functions: Plane wave expansion
  Cutoff energy: 500.000 eV
  Number of coefficients (min, max): 32335, 32478
  Pulay-stress correction: 0.000000 eV/Ang^3 (de/decut=0.000000)
  Using FFTW library
  ScaLapack parameters: grid=1x1, blocksize=None
  Wavefunction extrapolation:
    Improved wavefunction reuse through dual PAW basis 

Eigensolver
   Davidson(niter=2, smin=None, normalize=True) 

Densities:
  Coarse grid: 40*32*160 grid
  Fine grid: 80*64*320 grid
  Total Charge: 0.000000 

Density mixing:
  Method: separate
  Backend: pulay
  Linear mixing parameter: 0.05
  Mixing with 5 old densities
  Damping of long wave oscillations: 50 

Hamiltonian:
  XC and Coulomb potentials evaluated on a 80*64*320 grid
  Using the vdW-DF-cx Exchange-Correlation functional
 

XC parameters: vdW-DF-cx with libvdwxc
  Mode: mpi with 32 cores
  Semilocal: GGA_X_LV_RPW86+LDA_C_PW with 2 nearest neighbor stencil
  Local blocksize: 3 x 64 x 320
  PAW datasets: PBE

Memory estimate:
  Process memory now: 215.00 MiB
  Calculator: 106.40 MiB
    Density: 24.81 MiB
      Arrays: 10.16 MiB
      Localized functions: 10.74 MiB
      Mixer: 3.91 MiB
    Hamiltonian: 6.90 MiB
      Arrays: 6.64 MiB
      XC: 0.00 MiB
      Poisson: 0.00 MiB
      vbar: 0.26 MiB
    Wavefunctions: 74.69 MiB
      Arrays psit_nG: 31.22 MiB
      Eigensolver: 34.31 MiB
      Projections: 0.08 MiB
      Projectors: 1.05 MiB
      PW-descriptor: 8.03 MiB

Total number of cores used: 32
Parallelization over k-points: 8
Domain decomposition: 1 x 1 x 4
                      2 x 2 x 8 (xc only)

Number of atoms: 49
Number of atomic orbitals: 196
Number of bands in calculation: 63
Number of valence electrons: 97
Bands to converge: occupied

... initialized

Initializing position-dependent things.

Density initialized from atomic densities
Creating initial wave functions:
  63 bands from LCAO basis set

     .----------------.  
    /|                |  
   / |                |  
  /  |                |  
 *   |                |  
 |   |                |  
 |   |                |  
 |   |                |  
 |   |                |  
 |   |                |  
 |   |                |  
 |   |                |  
 |   |                |  
 |   |                |  
 |   |                |  
 |   |                |  
 |   |                |  
 |   |                |  
 |   |                |  
 |   |                |  
 |   |                |  
 |   |                |  
 |   |                |  
 |   |                |  
 |   |     Li         |  
 |   |                |  
 |  Li   N  Li   N    |  
 |   | Li       Li    |  
 |N  |Li LiN  Li Li   |  
 Li  |    Li          |  
 |Li |   N Li    N    |  
 |  Li      Li        |  
 |N  | Li  N    Li    |  
 |   |Li Li   Li Li   |  
 Li  |    Li          |  
 |Li |   N Li    N    |  
 |  Li      Li        |  
 |N  .-Li--N----Li----.  
 |  / Li Li   Li Li  /   
 Li/      Li        /    
 |/i       Li      /     
 *----------------*      

Positions:
   0 Li     1.753389    5.061850    0.000000    ( 0.0000,  0.0000,  0.0000)
   1 Li     0.000000    2.024928    0.000000    ( 0.0000,  0.0000,  0.0000)
   2 Li     3.506756    2.024928    0.000000    ( 0.0000,  0.0000,  0.0000)
   3 Li     5.260124    5.061850    0.000000    ( 0.0000,  0.0000,  0.0000)
   4 Li     1.753389    3.037256    1.946139    ( 0.0000,  0.0000,  0.0000)
   5 Li     0.000000    0.000334    1.946139    ( 0.0000,  0.0000,  0.0000)
   6 Li     3.506756    0.000334    1.946139    ( 0.0000,  0.0000,  0.0000)
   7 Li     5.260124    3.037256    1.946139    ( 0.0000,  0.0000,  0.0000)
   8 Li     1.753367    1.012631    1.946139    ( 0.0000,  0.0000,  0.0000)
   9 Li     0.000000    4.049553    1.946139    ( 0.0000,  0.0000,  0.0000)
  10 Li     3.506735    4.049553    1.946139    ( 0.0000,  0.0000,  0.0000)
  11 Li     5.260103    1.012631    1.946139    ( 0.0000,  0.0000,  0.0000)
  12 Li     1.753389    5.061850    3.920419    ( 0.0000,  0.0000,  0.0000)
  13 Li     0.000000    2.024928    3.920419    ( 0.0000,  0.0000,  0.0000)
  14 Li     3.506756    2.024928    3.920419    ( 0.0000,  0.0000,  0.0000)
  15 Li     5.260124    5.061850    3.920419    ( 0.0000,  0.0000,  0.0000)
  16 Li     1.753389    3.037256    5.887813    ( 0.0000,  0.0000,  0.0000)
  17 Li     0.000000    0.000334    5.887813    ( 0.0000,  0.0000,  0.0000)
  18 Li     3.506756    0.000334    5.887813    ( 0.0000,  0.0000,  0.0000)
  19 Li     5.260124    3.037256    5.887813    ( 0.0000,  0.0000,  0.0000)
  20 Li     1.753367    1.012631    5.887813    ( 0.0000,  0.0000,  0.0000)
  21 Li     0.000000    4.049553    5.887813    ( 0.0000,  0.0000,  0.0000)
  22 Li     3.506735    4.049553    5.887813    ( 0.0000,  0.0000,  0.0000)
  23 Li     5.260103    1.012631    5.887813    ( 0.0000,  0.0000,  0.0000)
  24 Li     1.753389    5.061850    7.859398    ( 0.0000,  0.0000,  0.0000)
  25 Li     0.000000    2.024928    7.859398    ( 0.0000,  0.0000,  0.0000)
  26 Li     3.506756    2.024928    7.859398    ( 0.0000,  0.0000,  0.0000)
  27 Li     5.260124    5.061850    7.859398    ( 0.0000,  0.0000,  0.0000)
  28 Li     1.753403    3.037286    9.979765    ( 0.0000,  0.0000,  0.0000)
  29 Li     0.000000    0.000364    9.979765    ( 0.0000,  0.0000,  0.0000)
  30 Li     3.506770    0.000364    9.979765    ( 0.0000,  0.0000,  0.0000)
  31 Li     5.260138    3.037286    9.979765    ( 0.0000,  0.0000,  0.0000)
  32 Li     1.753389    1.012661    9.979765    ( 0.0000,  0.0000,  0.0000)
  33 Li     0.000000    4.049583    9.979765    ( 0.0000,  0.0000,  0.0000)
  34 Li     3.506756    4.049583    9.979765    ( 0.0000,  0.0000,  0.0000)
  35 Li     5.260124    1.012661    9.979765    ( 0.0000,  0.0000,  0.0000)
  36 N      1.753389    5.061910    1.929076    ( 0.0000,  0.0000,  0.0000)
  37 N      0.000000    2.024989    1.929076    ( 0.0000,  0.0000,  0.0000)
  38 N      3.506756    2.024989    1.929076    ( 0.0000,  0.0000,  0.0000)
  39 N      5.260124    5.061910    1.929076    ( 0.0000,  0.0000,  0.0000)
  40 N      1.753389    5.061910    5.864163    ( 0.0000,  0.0000,  0.0000)
  41 N      0.000000    2.024989    5.864163    ( 0.0000,  0.0000,  0.0000)
  42 N      3.506756    2.024989    5.864163    ( 0.0000,  0.0000,  0.0000)
  43 N      5.260124    5.061910    5.864163    ( 0.0000,  0.0000,  0.0000)
  44 N      1.753389    5.061910    9.782786    ( 0.0000,  0.0000,  0.0000)
  45 N      0.000000    2.024989    9.782786    ( 0.0000,  0.0000,  0.0000)
  46 N      3.506756    2.024989    9.782786    ( 0.0000,  0.0000,  0.0000)
  47 N      5.260124    5.061910    9.782786    ( 0.0000,  0.0000,  0.0000)
  48 Li     3.536128    1.995755   12.370364    ( 0.0000,  0.0000,  0.0000)

Unit cell:
           periodic     x           y           z      points  spacing
  1. axis:    yes    7.013470    0.000000    0.000000    40     0.1753
  2. axis:    yes    0.000000    6.073843    0.000000    32     0.1898
  3. axis:    yes    0.000000    0.000000   29.936001   160     0.1871

  Lengths:   7.013470   6.073843  29.936001
  Angles:   90.000000  90.000000  90.000000

Effective grid spacing dv^(1/3) = 0.1840

                     log10-error:    total        iterations:
           time      wfs    density  energy       fermi  poisson
iter:   1  08:23:52                -187.120519    3             
iter:   2  08:24:03  -0.99  -0.50  -176.668129    31            
iter:   3  08:24:14  -0.37  -0.56  -179.343545    38            
iter:   4  08:24:25  -1.88  -0.60  -164.759117    31            
iter:   5  08:24:35  -2.63  -0.69  -162.025375    4             
iter:   6  08:24:46  -1.96  -0.71  -157.660855    5             
iter:   7  08:24:57  -1.74  -0.82  -155.894379    4             
iter:   8  08:25:08  -1.74  -0.89  -154.899498    6             
iter:   9  08:25:19  -1.31  -0.96  -155.365787    34            
iter:  10  08:25:30  -1.43  -1.19  -154.402888    35            
iter:  11  08:25:40  -2.42  -1.31  -155.537881    4             
iter:  12  08:25:51  -2.66  -1.11  -155.053922    3             
iter:  13  08:26:02  -1.51  -1.18  -154.804663    35            
iter:  14  08:26:13  -2.05  -1.36  -154.328992    31            
iter:  15  08:26:24  -2.75  -1.46  -154.163133    4             
iter:  16  08:26:34  -2.72  -1.54  -154.047927    4             
iter:  17  08:26:45  -2.41  -1.58  -153.883869    6             
iter:  18  08:26:56  -3.62  -1.90  -153.878825    3             
iter:  19  08:27:03  -3.67  -1.92  -153.861362    3             
iter:  20  08:27:14  -2.70  -1.94  -153.976562    4             
iter:  21  08:27:25  -3.02  -1.69  -153.859575    32            
iter:  22  08:27:36  -3.83  -2.05  -153.866679    3             
iter:  23  08:27:47  -4.10  -2.15  -153.872186    4             
iter:  24  08:27:57  -4.17  -2.19  -153.871473    4             
iter:  25  08:28:08  -4.41  -2.31  -153.869385    4             
iter:  26  08:28:19  -4.15  -2.45  -153.871148    3             
iter:  27  08:28:30  -4.77  -2.50  -153.874068    4             
iter:  28  08:28:41  -4.37  -2.46  -153.872051    4             
iter:  29  08:28:51  -4.67  -2.47  -153.872001    3             
iter:  30  08:29:02  -5.56  -3.11  -153.870659    3             
iter:  31  08:29:13  -6.19  -3.28  -153.871068    3             
iter:  32  08:29:24  -5.77  -3.39  -153.871423    3             
iter:  33  08:29:34  -6.48  -3.34  -153.870912    3             
iter:  34  08:29:45  -7.31  -3.57  -153.871037    2             
iter:  35  08:29:56  -7.89  -3.53  -153.871018    2             
iter:  36  08:30:07  -6.66  -3.53  -153.871008    2             
iter:  37  08:30:18  -7.70  -3.55  -153.871018    2             
iter:  38  08:30:28  -8.38  -3.54  -153.871021    2             
iter:  39  08:30:39  -6.19  -3.54  -153.870979    3             
iter:  40  08:30:50  -6.60  -3.78  -153.870961    3             
iter:  41  08:31:01  -6.93  -3.95  -153.870975    2             
iter:  42  08:31:11  -7.49  -3.94  -153.870977    2             
iter:  43  08:31:22  -7.85  -4.07  -153.870976    2             
iter:  44  08:31:33  -8.32  -4.20  -153.870974    2             

Converged after 44 iterations.

Dipole moment: (0.010051, -1.801923, 5.847006) |e|*Ang

Energy contributions relative to reference atoms: (reference = -25283.807400)

Kinetic:       +176.780368
Potential:     -128.467461
External:        +0.000000
XC:            -201.166642
Entropy (-ST):   -0.024113
Local:           -1.005182
--------------------------
Free energy:   -153.883031
Extrapolated:  -153.870974

Non-local vdW-DF-cx correlation energy: 15.286624
Semilocal GGA_X_LV_RPW86+LDA_C_PW energy: -1087.955225
(Not including atomic contributions)
Fermi level: -0.81134

Showing only first 2 kpts
 Kpt  Band  Eigenvalues  Occupancy
  0    46     -1.03926    0.13327
  0    47     -0.70586    0.00385
  0    48     -0.63896    0.00042
  0    49     -0.52820    0.00001

  1    46     -1.01440    0.13318
  1    47     -1.00580    0.13313
  1    48     -0.79905    0.05320
  1    49     -0.32992    0.00000


No gap

Forces in eV/Ang:
  0 Li    0.00001    0.00003   -0.09620
  1 Li    0.00001    0.00002   -0.09621
  2 Li   -0.00001    0.00002   -0.09648
  3 Li   -0.00004    0.00002   -0.09621
  4 Li   -0.00069    0.00259    0.03408
  5 Li    0.00009    0.00205    0.03494
  6 Li   -0.00009    0.00133    0.03429
  7 Li    0.00043    0.00262    0.03407
  8 Li   -0.00047   -0.00214    0.03408
  9 Li    0.00019   -0.00157    0.03495
 10 Li    0.00018   -0.00085    0.03430
 11 Li    0.00065   -0.00210    0.03407
 12 Li   -0.00108    0.00006    0.08329
 13 Li    0.00004    0.00009    0.08311
 14 Li   -0.00003    0.00010    0.08196
 15 Li    0.00103    0.00004    0.08330
 16 Li   -0.00826    0.00587   -0.01375
 17 Li    0.00018   -0.00172   -0.00207
 18 Li   -0.00017   -0.01183   -0.01151
 19 Li    0.00800    0.00576   -0.01369
 20 Li   -0.00802   -0.00544   -0.01352
 21 Li    0.00027    0.00220   -0.00220
 22 Li    0.00009    0.01235   -0.01180
 23 Li    0.00820   -0.00526   -0.01345
 24 Li   -0.01401    0.00072    0.05658
 25 Li   -0.00051   -0.00042    0.05285
 26 Li    0.00041   -0.00067    0.09951
 27 Li    0.01401    0.00072    0.05746
 28 Li   -0.14063    0.08020   -0.15938
 29 Li    0.00082   -0.01345    0.00901
 30 Li   -0.00202   -0.19230   -0.19066
 31 Li    0.14520    0.08253   -0.17550
 32 Li   -0.14452   -0.08079   -0.16896
 33 Li    0.00088    0.01443    0.01009
 34 Li   -0.00173    0.18598   -0.17125
 35 Li    0.14964   -0.08310   -0.18591
 36 N     0.00032    0.01927   -0.16564
 37 N     0.00011    0.01925   -0.16499
 38 N    -0.00011    0.01925   -0.15848
 39 N    -0.00057    0.01924   -0.16567
 40 N     0.00679    0.01894   -0.03159
 41 N     0.00020    0.01917   -0.02734
 42 N    -0.00020    0.01936    0.02300
 43 N    -0.00701    0.01892   -0.03073
 44 N     0.09493    0.02248    0.19992
 45 N    -0.00544    0.01972    0.20838
 46 N     0.01414    0.00611    1.60567
 47 N    -0.09722    0.02274    0.20926
 48 Li   -0.01402    0.01349   -1.24201

System changes: positions 

Initializing position-dependent things.

Density initialized from wave functions
     .----------------.  
    /|                |  
   / |                |  
  /  |                |  
 *   |                |  
 |   |                |  
 |   |                |  
 |   |                |  
 |   |                |  
 |   |                |  
 |   |                |  
 |   |                |  
 |   |                |  
 |   |                |  
 |   |                |  
 |   |                |  
 |   |                |  
 |   |                |  
 |   |                |  
 |   |                |  
 |   |                |  
 |   |                |  
 |   |                |  
 |   |                |  
 |   |     Li         |  
 |   |       Li       |  
 |  Li   N  Li   N    |  
 |   | Li       Li    |  
 |   |Li LiN  Li LiN  |  
 Li  |                |  
 |   |   N Li    N Li |  
 |  Li      Li        |  
 |N  | Li  N    Li    |  
 |   |Li Li   Li Li   |  
 Li  |    Li          |  
 |Li |   N Li    N    |  
 |  Li      Li        |  
 |N  .-Li--N----Li----.  
 |  / Li Li   Li Li  /   
 Li/      Li        /    
 |/i       Li      /     
 *----------------*      

Positions:
   0 Li     1.753389    5.061850    0.000000    ( 0.0000,  0.0000,  0.0000)
   1 Li     0.000000    2.024928    0.000000    ( 0.0000,  0.0000,  0.0000)
   2 Li     3.506756    2.024928    0.000000    ( 0.0000,  0.0000,  0.0000)
   3 Li     5.260124    5.061850    0.000000    ( 0.0000,  0.0000,  0.0000)
   4 Li     1.753389    3.037256    1.946139    ( 0.0000,  0.0000,  0.0000)
   5 Li     0.000000    0.000334    1.946139    ( 0.0000,  0.0000,  0.0000)
   6 Li     3.506756    0.000334    1.946139    ( 0.0000,  0.0000,  0.0000)
   7 Li     5.260124    3.037256    1.946139    ( 0.0000,  0.0000,  0.0000)
   8 Li     1.753367    1.012631    1.946139    ( 0.0000,  0.0000,  0.0000)
   9 Li     0.000000    4.049553    1.946139    ( 0.0000,  0.0000,  0.0000)
  10 Li     3.506735    4.049553    1.946139    ( 0.0000,  0.0000,  0.0000)
  11 Li     5.260103    1.012631    1.946139    ( 0.0000,  0.0000,  0.0000)
  12 Li     1.753389    5.061850    3.920419    ( 0.0000,  0.0000,  0.0000)
  13 Li     0.000000    2.024928    3.920419    ( 0.0000,  0.0000,  0.0000)
  14 Li     3.506756    2.024928    3.920419    ( 0.0000,  0.0000,  0.0000)
  15 Li     5.260124    5.061850    3.920419    ( 0.0000,  0.0000,  0.0000)
  16 Li     1.753270    3.037339    5.887616    ( 0.0000,  0.0000,  0.0000)
  17 Li     0.000003    0.000309    5.887783    ( 0.0000,  0.0000,  0.0000)
  18 Li     3.506754    0.000165    5.887648    ( 0.0000,  0.0000,  0.0000)
  19 Li     5.260238    3.037338    5.887617    ( 0.0000,  0.0000,  0.0000)
  20 Li     1.753253    1.012553    5.887619    ( 0.0000,  0.0000,  0.0000)
  21 Li     0.000004    4.049584    5.887781    ( 0.0000,  0.0000,  0.0000)
  22 Li     3.506736    4.049729    5.887644    ( 0.0000,  0.0000,  0.0000)
  23 Li     5.260220    1.012556    5.887620    ( 0.0000,  0.0000,  0.0000)
  24 Li     1.753188    5.061860    7.860206    ( 0.0000,  0.0000,  0.0000)
  25 Li    -0.000007    2.024922    7.860153    ( 0.0000,  0.0000,  0.0000)
  26 Li     3.506762    2.024919    7.860819    ( 0.0000,  0.0000,  0.0000)
  27 Li     5.260324    5.061860    7.860219    ( 0.0000,  0.0000,  0.0000)
  28 Li     1.751394    3.038432    9.977488    ( 0.0000,  0.0000,  0.0000)
  29 Li     0.000012    0.000172    9.979893    ( 0.0000,  0.0000,  0.0000)
  30 Li     3.506741   -0.002383    9.977041    ( 0.0000,  0.0000,  0.0000)
  31 Li     5.262212    3.038465    9.977257    ( 0.0000,  0.0000,  0.0000)
  32 Li     1.751324    1.011507    9.977351    ( 0.0000,  0.0000,  0.0000)
  33 Li     0.000013    4.049789    9.979909    ( 0.0000,  0.0000,  0.0000)
  34 Li     3.506731    4.052240    9.977318    ( 0.0000,  0.0000,  0.0000)
  35 Li     5.262261    1.011474    9.977109    ( 0.0000,  0.0000,  0.0000)
  36 N      1.753389    5.061910    1.929076    ( 0.0000,  0.0000,  0.0000)
  37 N      0.000000    2.024989    1.929076    ( 0.0000,  0.0000,  0.0000)
  38 N      3.506756    2.024989    1.929076    ( 0.0000,  0.0000,  0.0000)
  39 N      5.260124    5.061910    1.929076    ( 0.0000,  0.0000,  0.0000)
  40 N      1.753485    5.062181    5.863712    ( 0.0000,  0.0000,  0.0000)
  41 N      0.000003    2.025263    5.863773    ( 0.0000,  0.0000,  0.0000)
  42 N      3.506753    2.025265    5.864492    ( 0.0000,  0.0000,  0.0000)
  43 N      5.260023    5.062181    5.863724    ( 0.0000,  0.0000,  0.0000)
  44 N      1.754745    5.062231    9.785642    ( 0.0000,  0.0000,  0.0000)
  45 N     -0.000078    2.025271    9.785763    ( 0.0000,  0.0000,  0.0000)
  46 N      3.506958    2.025076    9.805724    ( 0.0000,  0.0000,  0.0000)
  47 N      5.258735    5.062235    9.785775    ( 0.0000,  0.0000,  0.0000)
  48 Li     3.535928    1.995948   12.352621    ( 0.0000,  0.0000,  0.0000)

Unit cell:
           periodic     x           y           z      points  spacing
  1. axis:    yes    7.013470    0.000000    0.000000    40     0.1753
  2. axis:    yes    0.000000    6.073843    0.000000    32     0.1898
  3. axis:    yes    0.000000    0.000000   29.936001   160     0.1871

  Lengths:   7.013470   6.073843  29.936001
  Angles:   90.000000  90.000000  90.000000

Effective grid spacing dv^(1/3) = 0.1840

                     log10-error:    total        iterations:
           time      wfs    density  energy       fermi  poisson
iter:   1  08:31:56  -3.23         -153.946479    3             
iter:   2  08:32:07  -4.28  -2.33  -153.948715    4             
iter:   3  08:32:17  -5.22  -2.37  -153.942400    4             
iter:   4  08:32:29  -3.97  -2.56  -153.942375    4             
iter:   5  08:32:40  -4.47  -2.27  -153.937593    3             
iter:   6  08:32:51  -5.46  -2.99  -153.936617    3             
iter:   7  08:33:02  -5.00  -3.23  -153.935374    3             
iter:   8  08:33:13  -5.52  -3.14  -153.936157    3             
iter:   9  08:33:23  -6.26  -3.45  -153.936353    3             
iter:  10  08:33:34  -6.20  -3.49  -153.936181    2             
iter:  11  08:33:45  -6.83  -3.74  -153.935956    3             
iter:  12  08:33:57  -7.60  -4.19  -153.935962    2             
iter:  13  08:34:08  -7.90  -4.24  -153.935946    2             
iter:  14  08:34:19  -8.31  -4.33  -153.935960    2             

Converged after 14 iterations.

Dipole moment: (0.015487, -1.774851, 5.836484) |e|*Ang

Energy contributions relative to reference atoms: (reference = -25283.807400)

Kinetic:       +176.733735
Potential:     -128.431690
External:        +0.000000
XC:            -201.214516
Entropy (-ST):   -0.024378
Local:           -1.011301
--------------------------
Free energy:   -153.948149
Extrapolated:  -153.935960

Non-local vdW-DF-cx correlation energy: 15.288493
Semilocal GGA_X_LV_RPW86+LDA_C_PW energy: -1088.000676
(Not including atomic contributions)
Fermi level: -0.81075

Showing only first 2 kpts
 Kpt  Band  Eigenvalues  Occupancy
  0    46     -1.03900    0.13327
  0    47     -0.70225    0.00349
  0    48     -0.63975    0.00044
  0    49     -0.50379    0.00000

  1    46     -1.01315    0.13318
  1    47     -1.00456    0.13313
  1    48     -0.80026    0.05512
  1    49     -0.30002    0.00000


No gap

Forces in eV/Ang:
  0 Li    0.00002    0.00003   -0.09632
  1 Li    0.00001    0.00002   -0.09633
  2 Li   -0.00001    0.00002   -0.09670
  3 Li   -0.00005    0.00002   -0.09633
  4 Li   -0.00080    0.00267    0.03382
  5 Li    0.00009    0.00206    0.03482
  6 Li   -0.00009    0.00119    0.03402
  7 Li    0.00054    0.00269    0.03381
  8 Li   -0.00058   -0.00223    0.03382
  9 Li    0.00019   -0.00158    0.03483
 10 Li    0.00018   -0.00072    0.03403
 11 Li    0.00076   -0.00218    0.03381
 12 Li   -0.00138    0.00010    0.08016
 13 Li    0.00004    0.00012    0.08020
 14 Li   -0.00004    0.00013    0.08164
 15 Li    0.00134    0.00008    0.08021
 16 Li   -0.00778    0.00664   -0.01286
 17 Li    0.00015   -0.00075   -0.00147
 18 Li   -0.00015   -0.00957   -0.01031
 19 Li    0.00757    0.00656   -0.01279
 20 Li   -0.00757   -0.00416   -0.01264
 21 Li    0.00022    0.00327   -0.00158
 22 Li    0.00007    0.01214   -0.01059
 23 Li    0.00773   -0.00401   -0.01257
 24 Li   -0.01631    0.00074    0.05705
 25 Li   -0.00040   -0.00029    0.05464
 26 Li    0.00036   -0.00057    0.17846
 27 Li    0.01630    0.00074    0.05833
 28 Li   -0.12025    0.07029   -0.13690
 29 Li    0.00079   -0.02057    0.01555
 30 Li   -0.00157   -0.15644   -0.16766
 31 Li    0.12461    0.07273   -0.15266
 32 Li   -0.12375   -0.06901   -0.14637
 33 Li    0.00083    0.02348    0.01646
 34 Li   -0.00133    0.15224   -0.14832
 35 Li    0.12858   -0.07143   -0.16295
 36 N     0.00045    0.01923   -0.16550
 37 N     0.00011    0.01923   -0.16488
 38 N    -0.00011    0.01923   -0.15359
 39 N    -0.00071    0.01921   -0.16550
 40 N     0.00565    0.01692   -0.03032
 41 N     0.00013    0.01704   -0.02680
 42 N    -0.00015    0.01721    0.01472
 43 N    -0.00583    0.01690   -0.02942
 44 N     0.07355    0.01980    0.15949
 45 N    -0.00412    0.01789    0.16522
 46 N     0.01263    0.00519    1.51540
 47 N    -0.07544    0.02004    0.16742
 48 Li   -0.01448    0.01398   -1.27152

System changes: positions 

Initializing position-dependent things.

Density initialized from wave functions
     .----------------.  
    /|                |  
   / |                |  
  /  |                |  
 *   |                |  
 |   |                |  
 |   |                |  
 |   |                |  
 |   |                |  
 |   |                |  
 |   |                |  
 |   |                |  
 |   |                |  
 |   |                |  
 |   |                |  
 |   |                |  
 |   |                |  
 |   |                |  
 |   |                |  
 |   |                |  
 |   |                |  
 |   |                |  
 |   |                |  
 |   |                |  
 |   |                |  
 |   Li    LiLi       |  
 |  Li   N  Li   N    |  
 |   | Li  N    Li    |  
 |   |Li Li   Li LiN  |  
 |   |                |  
 |   |   N LiLi  N Li |  
 |  Li      Li        |  
 |N  | Li  N    Li    |  
 |   |Li Li   Li Li   |  
 Li  |                |  
 |Li |   N Li    N    |  
 |  Li      Li        |  
 |N  .-Li--N----Li----.  
 |  / Li Li   Li Li  /   
 Li/      Li        /    
 |/i       Li      /     
 *----------------*      

Positions:
   0 Li     1.753389    5.061850    0.000000    ( 0.0000,  0.0000,  0.0000)
   1 Li     0.000000    2.024928    0.000000    ( 0.0000,  0.0000,  0.0000)
   2 Li     3.506756    2.024928    0.000000    ( 0.0000,  0.0000,  0.0000)
   3 Li     5.260124    5.061850    0.000000    ( 0.0000,  0.0000,  0.0000)
   4 Li     1.753389    3.037256    1.946139    ( 0.0000,  0.0000,  0.0000)
   5 Li     0.000000    0.000334    1.946139    ( 0.0000,  0.0000,  0.0000)
   6 Li     3.506756    0.000334    1.946139    ( 0.0000,  0.0000,  0.0000)
   7 Li     5.260124    3.037256    1.946139    ( 0.0000,  0.0000,  0.0000)
   8 Li     1.753367    1.012631    1.946139    ( 0.0000,  0.0000,  0.0000)
   9 Li     0.000000    4.049553    1.946139    ( 0.0000,  0.0000,  0.0000)
  10 Li     3.506735    4.049553    1.946139    ( 0.0000,  0.0000,  0.0000)
  11 Li     5.260103    1.012631    1.946139    ( 0.0000,  0.0000,  0.0000)
  12 Li     1.753389    5.061850    3.920419    ( 0.0000,  0.0000,  0.0000)
  13 Li     0.000000    2.024928    3.920419    ( 0.0000,  0.0000,  0.0000)
  14 Li     3.506756    2.024928    3.920419    ( 0.0000,  0.0000,  0.0000)
  15 Li     5.260124    5.061850    3.920419    ( 0.0000,  0.0000,  0.0000)
  16 Li     1.752243    3.038200    5.885917    ( 0.0000,  0.0000,  0.0000)
  17 Li     0.000023    0.000198    5.887582    ( 0.0000,  0.0000,  0.0000)
  18 Li     3.506733   -0.001122    5.886279    ( 0.0000,  0.0000,  0.0000)
  19 Li     5.261237    3.038186    5.885928    ( 0.0000,  0.0000,  0.0000)
  20 Li     1.752254    1.011990    5.885950    ( 0.0000,  0.0000,  0.0000)
  21 Li     0.000034    4.049997    5.887565    ( 0.0000,  0.0000,  0.0000)
  22 Li     3.506746    4.051324    5.886239    ( 0.0000,  0.0000,  0.0000)
  23 Li     5.261240    1.012012    5.885960    ( 0.0000,  0.0000,  0.0000)
  24 Li     1.751082    5.061956    7.867680    ( 0.0000,  0.0000,  0.0000)
  25 Li    -0.000061    2.024882    7.867291    ( 0.0000,  0.0000,  0.0000)
  26 Li     3.506810    2.024843    7.883096    ( 0.0000,  0.0000,  0.0000)
  27 Li     5.262428    5.061957    7.867854    ( 0.0000,  0.0000,  0.0000)
  28 Li     1.735335    3.047789    9.959217    ( 0.0000,  0.0000,  0.0000)
  29 Li     0.000116   -0.002424    9.981839    ( 0.0000,  0.0000,  0.0000)
  30 Li     3.506529   -0.023406    9.954730    ( 0.0000,  0.0000,  0.0000)
  31 Li     5.278845    3.048141    9.956915    ( 0.0000,  0.0000,  0.0000)
  32 Li     1.734802    1.002290    9.957836    ( 0.0000,  0.0000,  0.0000)
  33 Li     0.000122    4.052739    9.981977    ( 0.0000,  0.0000,  0.0000)
  34 Li     3.506551    4.072683    9.957544    ( 0.0000,  0.0000,  0.0000)
  35 Li     5.279422    1.001942    9.955415    ( 0.0000,  0.0000,  0.0000)
  36 N      1.753389    5.061910    1.929076    ( 0.0000,  0.0000,  0.0000)
  37 N      0.000000    2.024989    1.929076    ( 0.0000,  0.0000,  0.0000)
  38 N      3.506756    2.024989    1.929076    ( 0.0000,  0.0000,  0.0000)
  39 N      5.260124    5.061910    1.929076    ( 0.0000,  0.0000,  0.0000)
  40 N      1.754242    5.064428    5.859719    ( 0.0000,  0.0000,  0.0000)
  41 N      0.000021    2.027528    5.860250    ( 0.0000,  0.0000,  0.0000)
  42 N      3.506733    2.027553    5.866540    ( 0.0000,  0.0000,  0.0000)
  43 N      5.259242    5.064426    5.859848    ( 0.0000,  0.0000,  0.0000)
  44 N      1.764693    5.064865    9.807131    ( 0.0000,  0.0000,  0.0000)
  45 N     -0.000637    2.027643    9.808041    ( 0.0000,  0.0000,  0.0000)
  46 N      3.508635    2.025769   10.005716    ( 0.0000,  0.0000,  0.0000)
  47 N      5.248533    5.064902    9.808324    ( 0.0000,  0.0000,  0.0000)
  48 Li     3.534036    1.997774   12.186313    ( 0.0000,  0.0000,  0.0000)

Unit cell:
           periodic     x           y           z      points  spacing
  1. axis:    yes    7.013470    0.000000    0.000000    40     0.1753
  2. axis:    yes    0.000000    6.073843    0.000000    32     0.1898
  3. axis:    yes    0.000000    0.000000   29.936001   160     0.1871

  Lengths:   7.013470   6.073843  29.936001
  Angles:   90.000000  90.000000  90.000000

Effective grid spacing dv^(1/3) = 0.1840

                     log10-error:    total        iterations:
           time      wfs    density  energy       fermi  poisson
iter:   1  08:34:41  -1.42         -155.187436    4             
iter:   2  08:34:52  -2.50  -1.45  -155.334572    4             
iter:   3  08:35:03  -3.36  -1.47  -154.703443    5             
iter:   4  08:35:15  -2.85  -1.69  -154.647796    4             
iter:   5  08:35:26  -2.51  -1.62  -154.428816    2             
iter:   6  08:35:37  -3.61  -2.16  -154.418365    3             
iter:   7  08:35:48  -3.38  -2.21  -154.408850    3             
iter:   8  08:35:59  -3.54  -2.13  -154.411597    3             
iter:   9  08:36:10  -4.16  -2.39  -154.409354    4             
iter:  10  08:36:21  -3.93  -2.42  -154.401308    4             
iter:  11  08:36:33  -4.15  -2.60  -154.399272    3             
iter:  12  08:36:44  -5.03  -2.71  -154.398934    3             
iter:  13  08:36:55  -4.90  -2.73  -154.394676    3             
iter:  14  08:37:06  -5.87  -3.13  -154.395697    3             
iter:  15  08:37:17  -5.98  -3.13  -154.394752    3             
iter:  16  08:37:28  -5.92  -3.22  -154.396353    3             
iter:  17  08:37:40  -5.74  -3.07  -154.395097    3             
iter:  18  08:37:51  -6.32  -3.70  -154.394836    3             
iter:  19  08:38:02  -7.02  -3.58  -154.395103    3             
iter:  20  08:38:13  -6.78  -3.94  -154.394759    3             
iter:  21  08:38:24  -6.92  -3.53  -154.395083    3             
iter:  22  08:38:35  -7.07  -4.17  -154.395075    2             
iter:  23  08:38:46  -7.79  -4.29  -154.395104    2             
iter:  24  08:38:58  -8.22  -4.34  -154.395099    2             

Converged after 24 iterations.

Dipole moment: (0.053913, -1.531606, 5.769562) |e|*Ang

Energy contributions relative to reference atoms: (reference = -25283.807400)

Kinetic:       +176.936963
Potential:     -128.596721
External:        +0.000000
XC:            -201.714625
Entropy (-ST):   -0.026087
Local:           -1.007673
--------------------------
Free energy:   -154.408142
Extrapolated:  -154.395099

Non-local vdW-DF-cx correlation energy: 15.310222
Semilocal GGA_X_LV_RPW86+LDA_C_PW energy: -1088.481257
(Not including atomic contributions)
Fermi level: -0.85264

Showing only first 2 kpts
 Kpt  Band  Eigenvalues  Occupancy
  0    46     -1.08296    0.13327
  0    47     -0.74582    0.00368
  0    48     -0.69326    0.00065
  0    49     -0.28463    0.00000

  1    46     -1.05960    0.13320
  1    47     -1.04177    0.13309
  1    48     -0.85444    0.06866
  1    49     -0.20567    0.00000


No gap

Forces in eV/Ang:
  0 Li    0.00001    0.00003   -0.10025
  1 Li    0.00001    0.00002   -0.10018
  2 Li   -0.00001    0.00002   -0.10096
  3 Li   -0.00004    0.00002   -0.10027
  4 Li   -0.00168    0.00312    0.03133
  5 Li    0.00010    0.00190    0.03331
  6 Li   -0.00010    0.00003    0.03152
  7 Li    0.00142    0.00314    0.03130
  8 Li   -0.00146   -0.00274    0.03134
  9 Li    0.00020   -0.00148    0.03332
 10 Li    0.00017    0.00039    0.03151
 11 Li    0.00164   -0.00268    0.03131
 12 Li   -0.00371    0.00060    0.05683
 13 Li    0.00007    0.00056    0.05878
 14 Li   -0.00007    0.00057    0.08123
 15 Li    0.00368    0.00059    0.05735
 16 Li   -0.00007    0.00974   -0.00482
 17 Li   -0.00005    0.00686   -0.00137
 18 Li    0.00003    0.01234    0.00090
 19 Li    0.00026    0.00984   -0.00470
 20 Li   -0.00019    0.00866   -0.00469
 21 Li   -0.00015    0.01137   -0.00128
 22 Li   -0.00012    0.00599    0.00061
 23 Li    0.00017    0.00849   -0.00457
 24 Li   -0.03191    0.00128    0.04060
 25 Li    0.00084    0.00140    0.04347
 26 Li    0.00002    0.00097    0.46405
 27 Li    0.03182    0.00127    0.04387
 28 Li    0.04991   -0.01280    0.05943
 29 Li    0.00078   -0.06071    0.07577
 30 Li    0.00193    0.14157    0.03062
 31 Li   -0.04793   -0.01031    0.04670
 32 Li    0.04892    0.02958    0.05098
 33 Li    0.00065    0.07806    0.07522
 34 Li    0.00187   -0.12901    0.04949
 35 Li   -0.04708    0.02729    0.03748
 36 N     0.00147    0.01904   -0.14806
 37 N     0.00009    0.01908   -0.14656
 38 N    -0.00011    0.01912   -0.13644
 39 N    -0.00169    0.01903   -0.14715
 40 N    -0.00598    0.00100    0.01002
 41 N    -0.00014    0.00087    0.00751
 42 N     0.00004    0.00119    0.15078
 43 N     0.00605    0.00101    0.00852
 44 N    -0.09051   -0.00223   -0.08773
 45 N     0.00664    0.00395   -0.10926
 46 N    -0.00023    0.00007    0.62817
 47 N     0.09149   -0.00227   -0.08203
 48 Li   -0.01712    0.01742   -1.28611

System changes: positions 

Initializing position-dependent things.

Density initialized from wave functions
     .----------------.  
    /|                |  
   / |                |  
  /  |                |  
 *   |                |  
 |   |                |  
 |   |                |  
 |   |                |  
 |   |                |  
 |   |                |  
 |   |                |  
 |   |                |  
 |   |                |  
 |   |                |  
 |   |                |  
 |   |                |  
 |   |                |  
 |   |                |  
 |   |                |  
 |   |                |  
 |   |                |  
 |   |                |  
 |   |                |  
 |   |                |  
 |   |                |  
 |   Li    LiLi       |  
 |  Li   N  Li   N    |  
 |   | Li  N    Li    |  
 |   |Li Li   Li LiN  |  
 |   |                |  
 |   |   N LiLi  N Li |  
 |  Li      Li        |  
 |N  | Li  N    Li    |  
 |   |Li Li   Li Li   |  
 Li  |                |  
 |Li |   N Li    N    |  
 |  Li      Li        |  
 |N  .-Li--N----Li----.  
 |  / Li Li   Li Li  /   
 Li/      Li        /    
 |/i       Li      /     
 *----------------*      

Positions:
   0 Li     1.753389    5.061850    0.000000    ( 0.0000,  0.0000,  0.0000)
   1 Li     0.000000    2.024928    0.000000    ( 0.0000,  0.0000,  0.0000)
   2 Li     3.506756    2.024928    0.000000    ( 0.0000,  0.0000,  0.0000)
   3 Li     5.260124    5.061850    0.000000    ( 0.0000,  0.0000,  0.0000)
   4 Li     1.753389    3.037256    1.946139    ( 0.0000,  0.0000,  0.0000)
   5 Li     0.000000    0.000334    1.946139    ( 0.0000,  0.0000,  0.0000)
   6 Li     3.506756    0.000334    1.946139    ( 0.0000,  0.0000,  0.0000)
   7 Li     5.260124    3.037256    1.946139    ( 0.0000,  0.0000,  0.0000)
   8 Li     1.753367    1.012631    1.946139    ( 0.0000,  0.0000,  0.0000)
   9 Li     0.000000    4.049553    1.946139    ( 0.0000,  0.0000,  0.0000)
  10 Li     3.506735    4.049553    1.946139    ( 0.0000,  0.0000,  0.0000)
  11 Li     5.260103    1.012631    1.946139    ( 0.0000,  0.0000,  0.0000)
  12 Li     1.753389    5.061850    3.920419    ( 0.0000,  0.0000,  0.0000)
  13 Li     0.000000    2.024928    3.920419    ( 0.0000,  0.0000,  0.0000)
  14 Li     3.506756    2.024928    3.920419    ( 0.0000,  0.0000,  0.0000)
  15 Li     5.260124    5.061850    3.920419    ( 0.0000,  0.0000,  0.0000)
  16 Li     1.751289    3.039204    5.884229    ( 0.0000,  0.0000,  0.0000)
  17 Li     0.000041    0.000238    5.887355    ( 0.0000,  0.0000,  0.0000)
  18 Li     3.506715   -0.002056    5.885022    ( 0.0000,  0.0000,  0.0000)
  19 Li     5.262169    3.039181    5.884250    ( 0.0000,  0.0000,  0.0000)
  20 Li     1.751323    1.011652    5.884290    ( 0.0000,  0.0000,  0.0000)
  21 Li     0.000059    4.050624    5.887326    ( 0.0000,  0.0000,  0.0000)
  22 Li     3.506752    4.052933    5.884941    ( 0.0000,  0.0000,  0.0000)
  23 Li     5.262190    1.011688    5.884312    ( 0.0000,  0.0000,  0.0000)
  24 Li     1.748442    5.062074    7.875487    ( 0.0000,  0.0000,  0.0000)
  25 Li    -0.000093    2.024876    7.874834    ( 0.0000,  0.0000,  0.0000)
  26 Li     3.506855    2.024794    7.913030    ( 0.0000,  0.0000,  0.0000)
  27 Li     5.265064    5.062075    7.875880    ( 0.0000,  0.0000,  0.0000)
  28 Li     1.721391    3.056261    9.943425    ( 0.0000,  0.0000,  0.0000)
  29 Li     0.000231   -0.006102    9.985281    ( 0.0000,  0.0000,  0.0000)
  30 Li     3.506371   -0.040043    9.934544    ( 0.0000,  0.0000,  0.0000)
  31 Li     5.293367    3.056961    9.938916    ( 0.0000,  0.0000,  0.0000)
  32 Li     1.720401    0.994307    9.940702    ( 0.0000,  0.0000,  0.0000)
  33 Li     0.000239    4.057114    9.985521    ( 0.0000,  0.0000,  0.0000)
  34 Li     3.506422    4.089042    9.940130    ( 0.0000,  0.0000,  0.0000)
  35 Li     5.294457    0.993616    9.935958    ( 0.0000,  0.0000,  0.0000)
  36 N      1.753389    5.061910    1.929076    ( 0.0000,  0.0000,  0.0000)
  37 N      0.000000    2.024989    1.929076    ( 0.0000,  0.0000,  0.0000)
  38 N      3.506756    2.024989    1.929076    ( 0.0000,  0.0000,  0.0000)
  39 N      5.260124    5.061910    1.929076    ( 0.0000,  0.0000,  0.0000)
  40 N      1.754818    5.066551    5.856261    ( 0.0000,  0.0000,  0.0000)
  41 N      0.000035    2.029666    5.857179    ( 0.0000,  0.0000,  0.0000)
  42 N      3.506715    2.029720    5.872081    ( 0.0000,  0.0000,  0.0000)
  43 N      5.258644    5.066547    5.856462    ( 0.0000,  0.0000,  0.0000)
  44 N      1.772093    5.067280    9.825529    ( 0.0000,  0.0000,  0.0000)
  45 N     -0.001019    2.029947    9.826711    ( 0.0000,  0.0000,  0.0000)
  46 N      3.510198    2.026424   10.205708    ( 0.0000,  0.0000,  0.0000)
  47 N      5.240916    5.067345    9.827854    ( 0.0000,  0.0000,  0.0000)
  48 Li     3.531906    1.999851   12.003994    ( 0.0000,  0.0000,  0.0000)

Unit cell:
           periodic     x           y           z      points  spacing
  1. axis:    yes    7.013470    0.000000    0.000000    40     0.1753
  2. axis:    yes    0.000000    6.073843    0.000000    32     0.1898
  3. axis:    yes    0.000000    0.000000   29.936001   160     0.1871

  Lengths:   7.013470   6.073843  29.936001
  Angles:   90.000000  90.000000  90.000000

Effective grid spacing dv^(1/3) = 0.1840

                     log10-error:    total        iterations:
           time      wfs    density  energy       fermi  poisson
iter:   1  08:39:20  -1.46         -154.990201    33            
iter:   2  08:39:31  -2.75  -1.60  -154.876576    5             
iter:   3  08:39:42  -3.49  -1.60  -154.724656    4             
iter:   4  08:39:53  -2.42  -1.73  -154.514888    3             
iter:   5  08:40:04  -3.45  -2.15  -154.508825    3             
iter:   6  08:40:15  -3.09  -2.18  -154.489036    4             
iter:   7  08:40:26  -3.46  -2.35  -154.497226    4             
iter:   8  08:40:37  -4.60  -2.19  -154.491076    3             
iter:   9  08:40:48  -5.09  -2.36  -154.485755    3             
iter:  10  08:40:59  -3.41  -2.39  -154.521897    2             
iter:  11  08:41:10  -3.91  -1.96  -154.483403    3             
iter:  12  08:41:21  -4.08  -2.35  -154.479306    4             
iter:  13  08:41:32  -5.11  -2.71  -154.478675    3             
iter:  14  08:41:43  -5.74  -2.79  -154.478956    3             
iter:  15  08:41:54  -5.20  -2.78  -154.479510    2             
iter:  16  08:42:05  -5.42  -2.79  -154.476986    3             
iter:  17  08:42:16  -5.69  -3.04  -154.475937    3             
iter:  18  08:42:27  -5.25  -3.16  -154.478712    4             
iter:  19  08:42:38  -5.54  -2.88  -154.475907    3             
iter:  20  08:42:49  -6.74  -3.33  -154.476236    2             
iter:  21  08:43:00  -5.76  -3.47  -154.475883    3             
iter:  22  08:43:11  -6.28  -3.56  -154.476221    2             
iter:  23  08:43:22  -7.25  -3.99  -154.476099    2             
iter:  24  08:43:33  -7.92  -4.01  -154.476139    2             
iter:  25  08:43:44  -7.85  -4.15  -154.476165    2             
iter:  26  08:43:55  -8.43  -4.25  -154.476163    2             

Converged after 26 iterations.

Dipole moment: (0.077923, -1.284243, 5.749780) |e|*Ang

Energy contributions relative to reference atoms: (reference = -25283.807400)

Kinetic:       +179.900127
Potential:     -130.771933
External:        +0.000000
XC:            -202.586005
Entropy (-ST):   -0.027480
Local:           -1.004611
--------------------------
Free energy:   -154.489903
Extrapolated:  -154.476163

Non-local vdW-DF-cx correlation energy: 15.343692
Semilocal GGA_X_LV_RPW86+LDA_C_PW energy: -1089.173653
(Not including atomic contributions)
Fermi level: -0.96254

Showing only first 2 kpts
 Kpt  Band  Eigenvalues  Occupancy
  0    46     -1.19052    0.13327
  0    47     -0.87917    0.00780
  0    48     -0.81234    0.00089
  0    49     -0.27690    0.00000

  1    46     -1.19424    0.13327
  1    47     -1.14628    0.13304
  1    48     -0.96790    0.07260
  1    49     -0.31720    0.00000


No gap

Forces in eV/Ang:
  0 Li   -0.00001    0.00002   -0.10148
  1 Li    0.00001    0.00002   -0.10141
  2 Li   -0.00001    0.00002   -0.10236
  3 Li   -0.00002    0.00002   -0.10151
  4 Li   -0.00251    0.00363    0.03057
  5 Li    0.00011    0.00200    0.03331
  6 Li   -0.00011   -0.00095    0.03069
  7 Li    0.00225    0.00364    0.03054
  8 Li   -0.00229   -0.00330    0.03060
  9 Li    0.00020   -0.00163    0.03331
 10 Li    0.00016    0.00133    0.03065
 11 Li    0.00247   -0.00323    0.03057
 12 Li   -0.00604    0.00120    0.03964
 13 Li    0.00007    0.00105    0.04330
 14 Li   -0.00008    0.00111    0.09857
 15 Li    0.00602    0.00121    0.04046
 16 Li    0.01069    0.00880    0.01162
 17 Li   -0.00025    0.01440   -0.00156
 18 Li    0.00022    0.03628    0.02019
 19 Li   -0.01018    0.00903    0.01172
 20 Li    0.01028    0.02302    0.01168
 21 Li   -0.00048    0.01701   -0.00125
 22 Li   -0.00023   -0.00466    0.01983
 23 Li   -0.01046    0.02262    0.01177
 24 Li   -0.04132    0.00198    0.00345
 25 Li    0.00245    0.00352    0.00933
 26 Li   -0.00079    0.00306    0.38066
 27 Li    0.04120    0.00196    0.00759
 28 Li    0.21121   -0.09138    0.25270
 29 Li    0.00087   -0.06849    0.13977
 30 Li    0.00492    0.41938    0.22854
 31 Li   -0.21331   -0.09070    0.24345
 32 Li    0.21075    0.12287    0.24528
 33 Li    0.00068    0.09761    0.13748
 34 Li    0.00459   -0.39319    0.24763
 35 Li   -0.21339    0.12261    0.23529
 36 N     0.00194    0.01883   -0.14044
 37 N     0.00008    0.01891   -0.13976
 38 N    -0.00011    0.01901   -0.12805
 39 N    -0.00220    0.01882   -0.13997
 40 N    -0.01907   -0.01320    0.04664
 41 N    -0.00036   -0.01352    0.03785
 42 N     0.00034   -0.01307    0.21554
 43 N     0.01952   -0.01312    0.04693
 44 N    -0.21631   -0.02283   -0.32305
 45 N     0.01576   -0.00947   -0.36399
 46 N    -0.02405    0.01635   -1.39345
 47 N     0.21959   -0.02320   -0.33206
 48 Li   -0.00305    0.00139    0.20480

System changes: positions 

Initializing position-dependent things.

Density initialized from wave functions
     .----------------.  
    /|                |  
   / |                |  
  /  |                |  
 *   |                |  
 |   |                |  
 |   |                |  
 |   |                |  
 |   |                |  
 |   |                |  
 |   |                |  
 |   |                |  
 |   |                |  
 |   |                |  
 |   |                |  
 |   |                |  
 |   |                |  
 |   |                |  
 |   |                |  
 |   |                |  
 |   |                |  
 |   |                |  
 |   |                |  
 |   |                |  
 |   |                |  
 |   Li    LiLi       |  
 |  Li   N  Li   N    |  
 |   | Li  N    Li    |  
 |   |Li Li   Li LiN  |  
 |   |                |  
 |   |   N LiLi  N Li |  
 |  Li      Li        |  
 |N  | Li  N    Li    |  
 |   |Li Li   Li Li   |  
 Li  |                |  
 |Li |   N Li    N    |  
 |  Li      Li        |  
 |N  .-Li--N----Li----.  
 |  / Li Li   Li Li  /   
 Li/      Li        /    
 |/i       Li      /     
 *----------------*      

Positions:
   0 Li     1.753389    5.061850    0.000000    ( 0.0000,  0.0000,  0.0000)
   1 Li     0.000000    2.024928    0.000000    ( 0.0000,  0.0000,  0.0000)
   2 Li     3.506756    2.024928    0.000000    ( 0.0000,  0.0000,  0.0000)
   3 Li     5.260124    5.061850    0.000000    ( 0.0000,  0.0000,  0.0000)
   4 Li     1.753389    3.037256    1.946139    ( 0.0000,  0.0000,  0.0000)
   5 Li     0.000000    0.000334    1.946139    ( 0.0000,  0.0000,  0.0000)
   6 Li     3.506756    0.000334    1.946139    ( 0.0000,  0.0000,  0.0000)
   7 Li     5.260124    3.037256    1.946139    ( 0.0000,  0.0000,  0.0000)
   8 Li     1.753367    1.012631    1.946139    ( 0.0000,  0.0000,  0.0000)
   9 Li     0.000000    4.049553    1.946139    ( 0.0000,  0.0000,  0.0000)
  10 Li     3.506735    4.049553    1.946139    ( 0.0000,  0.0000,  0.0000)
  11 Li     5.260103    1.012631    1.946139    ( 0.0000,  0.0000,  0.0000)
  12 Li     1.753389    5.061850    3.920419    ( 0.0000,  0.0000,  0.0000)
  13 Li     0.000000    2.024928    3.920419    ( 0.0000,  0.0000,  0.0000)
  14 Li     3.506756    2.024928    3.920419    ( 0.0000,  0.0000,  0.0000)
  15 Li     5.260124    5.061850    3.920419    ( 0.0000,  0.0000,  0.0000)
  16 Li     1.751842    3.038814    5.885123    ( 0.0000,  0.0000,  0.0000)
  17 Li     0.000030    0.000354    5.887444    ( 0.0000,  0.0000,  0.0000)
  18 Li     3.506726   -0.001270    5.885793    ( 0.0000,  0.0000,  0.0000)
  19 Li     5.261632    3.038798    5.885140    ( 0.0000,  0.0000,  0.0000)
  20 Li     1.751860    1.012029    5.885171    ( 0.0000,  0.0000,  0.0000)
  21 Li     0.000042    4.050491    5.887423    ( 0.0000,  0.0000,  0.0000)
  22 Li     3.506747    4.052128    5.885728    ( 0.0000,  0.0000,  0.0000)
  23 Li     5.261642    1.012054    5.885189    ( 0.0000,  0.0000,  0.0000)
  24 Li     1.749300    5.062036    7.871824    ( 0.0000,  0.0000,  0.0000)
  25 Li    -0.000055    2.024912    7.871352    ( 0.0000,  0.0000,  0.0000)
  26 Li     3.506827    2.024845    7.902842    ( 0.0000,  0.0000,  0.0000)
  27 Li     5.264207    5.062037    7.872154    ( 0.0000,  0.0000,  0.0000)
  28 Li     1.730056    3.051347    9.953358    ( 0.0000,  0.0000,  0.0000)
  29 Li     0.000184   -0.005053    9.984954    ( 0.0000,  0.0000,  0.0000)
  30 Li     3.506493   -0.028103    9.946335    ( 0.0000,  0.0000,  0.0000)
  31 Li     5.284410    3.051891    9.949813    ( 0.0000,  0.0000,  0.0000)
  32 Li     1.729284    0.999287    9.951205    ( 0.0000,  0.0000,  0.0000)
  33 Li     0.000190    4.056011    9.985125    ( 0.0000,  0.0000,  0.0000)
  34 Li     3.506528    4.077488    9.950777    ( 0.0000,  0.0000,  0.0000)
  35 Li     5.285250    0.998754    9.947474    ( 0.0000,  0.0000,  0.0000)
  36 N      1.753389    5.061910    1.929076    ( 0.0000,  0.0000,  0.0000)
  37 N      0.000000    2.024989    1.929076    ( 0.0000,  0.0000,  0.0000)
  38 N      3.506756    2.024989    1.929076    ( 0.0000,  0.0000,  0.0000)
  39 N      5.260124    5.061910    1.929076    ( 0.0000,  0.0000,  0.0000)
  40 N      1.754365    5.065411    5.858393    ( 0.0000,  0.0000,  0.0000)
  41 N      0.000025    2.028516    5.859045    ( 0.0000,  0.0000,  0.0000)
  42 N      3.506726    2.028561    5.871884    ( 0.0000,  0.0000,  0.0000)
  43 N      5.259111    5.065408    5.858549    ( 0.0000,  0.0000,  0.0000)
  44 N      1.766444    5.065910    9.813780    ( 0.0000,  0.0000,  0.0000)
  45 N     -0.000684    2.028759    9.814422    ( 0.0000,  0.0000,  0.0000)
  46 N      3.509253    2.026215   10.099870    ( 0.0000,  0.0000,  0.0000)
  47 N      5.246700    5.065958    9.815522    ( 0.0000,  0.0000,  0.0000)
  48 Li     3.532853    1.998922   12.089373    ( 0.0000,  0.0000,  0.0000)

Unit cell:
           periodic     x           y           z      points  spacing
  1. axis:    yes    7.013470    0.000000    0.000000    40     0.1753
  2. axis:    yes    0.000000    6.073843    0.000000    32     0.1898
  3. axis:    yes    0.000000    0.000000   29.936001   160     0.1871

  Lengths:   7.013470   6.073843  29.936001
  Angles:   90.000000  90.000000  90.000000

Effective grid spacing dv^(1/3) = 0.1840

                     log10-error:    total        iterations:
           time      wfs    density  energy       fermi  poisson
iter:   1  08:44:18  -1.93         -154.710421    5             
iter:   2  08:44:29  -3.25  -1.88  -154.639898    3             
iter:   3  08:44:40  -3.90  -1.99  -154.606009    4             
iter:   4  08:44:51  -3.25  -2.13  -154.554884    2             
iter:   5  08:45:02  -3.20  -2.43  -154.550886    3             
iter:   6  08:45:14  -3.66  -2.45  -154.546882    4             
iter:   7  08:45:25  -4.41  -2.54  -154.542995    3             
iter:   8  08:45:36  -4.17  -2.55  -154.547423    4             
iter:   9  08:45:47  -5.03  -2.63  -154.543040    4             
iter:  10  08:45:58  -5.09  -2.98  -154.540680    3             
iter:  11  08:46:09  -5.64  -2.91  -154.541556    3             
iter:  12  08:46:20  -6.53  -3.35  -154.541024    2             
iter:  13  08:46:31  -5.78  -3.34  -154.541884    3             
iter:  14  08:46:43  -6.24  -3.32  -154.541364    2             
iter:  15  08:46:54  -6.76  -3.75  -154.541259    2             
iter:  16  08:47:05  -7.09  -3.88  -154.541265    2             
iter:  17  08:47:16  -7.79  -4.00  -154.541210    2             
iter:  18  08:47:27  -7.19  -4.14  -154.541256    2             
iter:  19  08:47:38  -8.01  -4.21  -154.541224    1             

Converged after 19 iterations.

Dipole moment: (0.054985, -1.438263, 5.760970) |e|*Ang

Energy contributions relative to reference atoms: (reference = -25283.807400)

Kinetic:       +177.901146
Potential:     -129.314643
External:        +0.000000
XC:            -202.100196
Entropy (-ST):   -0.026720
Local:           -1.014171
--------------------------
Free energy:   -154.554584
Extrapolated:  -154.541224

Non-local vdW-DF-cx correlation energy: 15.326190
Semilocal GGA_X_LV_RPW86+LDA_C_PW energy: -1088.806359
(Not including atomic contributions)
Fermi level: -0.90122

Showing only first 2 kpts
 Kpt  Band  Eigenvalues  Occupancy
  0    46     -1.12882    0.13327
  0    47     -0.80466    0.00513
  0    48     -0.74622    0.00076
  0    49     -0.21187    0.00000

  1    46     -1.11798    0.13324
  1    47     -1.08847    0.13307
  1    48     -0.90526    0.07115
  1    49     -0.25504    0.00000


No gap

Forces in eV/Ang:
  0 Li   -0.00005    0.00002   -0.10084
  1 Li    0.00001    0.00002   -0.10073
  2 Li   -0.00001    0.00002   -0.10144
  3 Li    0.00002    0.00002   -0.10086
  4 Li   -0.00230    0.00349    0.03059
  5 Li    0.00011    0.00195    0.03313
  6 Li   -0.00011   -0.00071    0.03071
  7 Li    0.00204    0.00350    0.03056
  8 Li   -0.00208   -0.00313    0.03061
  9 Li    0.00020   -0.00155    0.03314
 10 Li    0.00016    0.00111    0.03069
 11 Li    0.00226   -0.00307    0.03059
 12 Li   -0.00521    0.00103    0.05058
 13 Li    0.00006    0.00093    0.05311
 14 Li   -0.00007    0.00097    0.10000
 15 Li    0.00518    0.00103    0.05121
 16 Li    0.00487    0.00833    0.00718
 17 Li   -0.00013    0.01060   -0.00066
 18 Li    0.00012    0.02164    0.01460
 19 Li   -0.00458    0.00847    0.00730
 20 Li    0.00467    0.01473    0.00726
 21 Li   -0.00027    0.01222   -0.00048
 22 Li   -0.00013    0.00135    0.01431
 23 Li   -0.00476    0.01449    0.00738
 24 Li   -0.03668    0.00159    0.01412
 25 Li    0.00175    0.00259    0.01703
 26 Li   -0.00057    0.00246    0.42781
 27 Li    0.03664    0.00157    0.01743
 28 Li    0.09946   -0.04098    0.13971
 29 Li    0.00090   -0.04706    0.09770
 30 Li    0.00286    0.21994    0.11122
 31 Li   -0.09865   -0.03973    0.12868
 32 Li    0.09956    0.06293    0.13183
 33 Li    0.00076    0.06832    0.09618
 34 Li    0.00268   -0.20173    0.13012
 35 Li   -0.09909    0.06193    0.12005
 36 N     0.00227    0.01894   -0.14458
 37 N     0.00009    0.01901   -0.14356
 38 N    -0.00011    0.01902   -0.13399
 39 N    -0.00250    0.01893   -0.14400
 40 N    -0.01124   -0.00415    0.01552
 41 N    -0.00026   -0.00441    0.01121
 42 N     0.00017   -0.00417    0.18932
 43 N     0.01142   -0.00411    0.01545
 44 N    -0.12066   -0.00914   -0.16601
 45 N     0.00917   -0.00144   -0.19807
 46 N    -0.00641    0.00124    0.00876
 47 N     0.12305   -0.00931   -0.16752
 48 Li   -0.01460    0.01509   -0.88609

System changes: positions 

Initializing position-dependent things.

Density initialized from wave functions
     .----------------.  
    /|                |  
   / |                |  
  /  |                |  
 *   |                |  
 |   |                |  
 |   |                |  
 |   |                |  
 |   |                |  
 |   |                |  
 |   |                |  
 |   |                |  
 |   |                |  
 |   |                |  
 |   |                |  
 |   |                |  
 |   |                |  
 |   |                |  
 |   |                |  
 |   |                |  
 |   |                |  
 |   |                |  
 |   |                |  
 |   |                |  
 |   |                |  
 |   Li    LiLi       |  
 |  Li   N  Li   N    |  
 |   | Li  N    Li    |  
 |   |Li Li   Li LiN  |  
 |   |                |  
 |   |   N LiLi  N Li |  
 |  Li      Li        |  
 |N  | Li  N    Li    |  
 |   |Li Li   Li Li   |  
 Li  |                |  
 |Li |   N Li    N    |  
 |  Li      Li        |  
 |N  .-Li--N----Li----.  
 |  / Li Li   Li Li  /   
 Li/      Li        /    
 |/i       Li      /     
 *----------------*      

Positions:
   0 Li     1.753389    5.061850    0.000000    ( 0.0000,  0.0000,  0.0000)
   1 Li     0.000000    2.024928    0.000000    ( 0.0000,  0.0000,  0.0000)
   2 Li     3.506756    2.024928    0.000000    ( 0.0000,  0.0000,  0.0000)
   3 Li     5.260124    5.061850    0.000000    ( 0.0000,  0.0000,  0.0000)
   4 Li     1.753389    3.037256    1.946139    ( 0.0000,  0.0000,  0.0000)
   5 Li     0.000000    0.000334    1.946139    ( 0.0000,  0.0000,  0.0000)
   6 Li     3.506756    0.000334    1.946139    ( 0.0000,  0.0000,  0.0000)
   7 Li     5.260124    3.037256    1.946139    ( 0.0000,  0.0000,  0.0000)
   8 Li     1.753367    1.012631    1.946139    ( 0.0000,  0.0000,  0.0000)
   9 Li     0.000000    4.049553    1.946139    ( 0.0000,  0.0000,  0.0000)
  10 Li     3.506735    4.049553    1.946139    ( 0.0000,  0.0000,  0.0000)
  11 Li     5.260103    1.012631    1.946139    ( 0.0000,  0.0000,  0.0000)
  12 Li     1.753389    5.061850    3.920419    ( 0.0000,  0.0000,  0.0000)
  13 Li     0.000000    2.024928    3.920419    ( 0.0000,  0.0000,  0.0000)
  14 Li     3.506756    2.024928    3.920419    ( 0.0000,  0.0000,  0.0000)
  15 Li     5.260124    5.061850    3.920419    ( 0.0000,  0.0000,  0.0000)
  16 Li     1.751814    3.039019    5.885046    ( 0.0000,  0.0000,  0.0000)
  17 Li     0.000030    0.000495    5.887403    ( 0.0000,  0.0000,  0.0000)
  18 Li     3.506725   -0.001079    5.885857    ( 0.0000,  0.0000,  0.0000)
  19 Li     5.261662    3.039004    5.885066    ( 0.0000,  0.0000,  0.0000)
  20 Li     1.751832    1.012190    5.885098    ( 0.0000,  0.0000,  0.0000)
  21 Li     0.000042    4.050713    5.887384    ( 0.0000,  0.0000,  0.0000)
  22 Li     3.506746    4.052303    5.885784    ( 0.0000,  0.0000,  0.0000)
  23 Li     5.261671    1.012214    5.885119    ( 0.0000,  0.0000,  0.0000)
  24 Li     1.748560    5.062070    7.872792    ( 0.0000,  0.0000,  0.0000)
  25 Li    -0.000035    2.024946    7.872321    ( 0.0000,  0.0000,  0.0000)
  26 Li     3.506824    2.024873    7.910436    ( 0.0000,  0.0000,  0.0000)
  27 Li     5.264946    5.062071    7.873184    ( 0.0000,  0.0000,  0.0000)
  28 Li     1.729885    3.051713    9.953507    ( 0.0000,  0.0000,  0.0000)
  29 Li     0.000208   -0.006000    9.986615    ( 0.0000,  0.0000,  0.0000)
  30 Li     3.506513   -0.026981    9.945651    ( 0.0000,  0.0000,  0.0000)
  31 Li     5.284648    3.052306    9.949584    ( 0.0000,  0.0000,  0.0000)
  32 Li     1.729059    0.999259    9.951109    ( 0.0000,  0.0000,  0.0000)
  33 Li     0.000212    4.057304    9.986777    ( 0.0000,  0.0000,  0.0000)
  34 Li     3.506549    4.076566    9.950636    ( 0.0000,  0.0000,  0.0000)
  35 Li     5.285544    0.998680    9.946977    ( 0.0000,  0.0000,  0.0000)
  36 N      1.753389    5.061910    1.929076    ( 0.0000,  0.0000,  0.0000)
  37 N      0.000000    2.024989    1.929076    ( 0.0000,  0.0000,  0.0000)
  38 N      3.506756    2.024989    1.929076    ( 0.0000,  0.0000,  0.0000)
  39 N      5.260124    5.061910    1.929076    ( 0.0000,  0.0000,  0.0000)
  40 N      1.754273    5.065585    5.858272    ( 0.0000,  0.0000,  0.0000)
  41 N      0.000024    2.028690    5.858907    ( 0.0000,  0.0000,  0.0000)
  42 N      3.506727    2.028741    5.875015    ( 0.0000,  0.0000,  0.0000)
  43 N      5.259203    5.065583    5.858439    ( 0.0000,  0.0000,  0.0000)
  44 N      1.765712    5.066048    9.813664    ( 0.0000,  0.0000,  0.0000)
  45 N     -0.000606    2.028987    9.813931    ( 0.0000,  0.0000,  0.0000)
  46 N      3.509307    2.026356   10.118429    ( 0.0000,  0.0000,  0.0000)
  47 N      5.247438    5.066096    9.815494    ( 0.0000,  0.0000,  0.0000)
  48 Li     3.532477    1.999292   12.062103    ( 0.0000,  0.0000,  0.0000)

Unit cell:
           periodic     x           y           z      points  spacing
  1. axis:    yes    7.013470    0.000000    0.000000    40     0.1753
  2. axis:    yes    0.000000    6.073843    0.000000    32     0.1898
  3. axis:    yes    0.000000    0.000000   29.936001   160     0.1871

  Lengths:   7.013470   6.073843  29.936001
  Angles:   90.000000  90.000000  90.000000

Effective grid spacing dv^(1/3) = 0.1840

                     log10-error:    total        iterations:
           time      wfs    density  energy       fermi  poisson
iter:   1  08:48:01  -3.40         -154.570972    3             
iter:   2  08:48:12  -4.37  -2.42  -154.573491    4             
iter:   3  08:48:23  -5.35  -2.51  -154.568799    3             
iter:   4  08:48:34  -4.35  -2.72  -154.568139    3             
iter:   5  08:48:45  -4.75  -2.40  -154.567732    4             
iter:   6  08:48:57  -5.63  -2.90  -154.565492    3             
iter:   7  08:49:08  -5.11  -3.32  -154.564709    3             
iter:   8  08:49:19  -5.38  -3.09  -154.567201    3             
iter:   9  08:49:30  -5.77  -3.01  -154.565542    3             
iter:  10  08:49:41  -6.40  -3.55  -154.565304    2             
iter:  11  08:49:52  -7.07  -3.85  -154.565178    2             
iter:  12  08:50:04  -7.07  -4.04  -154.565119    2             
iter:  13  08:50:15  -7.68  -4.04  -154.565204    2             
iter:  14  08:50:26  -8.47  -4.23  -154.565180    2             

Converged after 14 iterations.

Dipole moment: (0.048283, -1.433177, 5.762978) |e|*Ang

Energy contributions relative to reference atoms: (reference = -25283.807400)

Kinetic:       +178.268608
Potential:     -129.595684
External:        +0.000000
XC:            -202.215691
Entropy (-ST):   -0.026867
Local:           -1.008980
--------------------------
Free energy:   -154.578614
Extrapolated:  -154.565180

Non-local vdW-DF-cx correlation energy: 15.330405
Semilocal GGA_X_LV_RPW86+LDA_C_PW energy: -1088.902570
(Not including atomic contributions)
Fermi level: -0.91683

Showing only first 2 kpts
 Kpt  Band  Eigenvalues  Occupancy
  0    46     -1.14254    0.13326
  0    47     -0.82339    0.00567
  0    48     -0.76267    0.00078
  0    49     -0.22666    0.00000

  1    46     -1.13580    0.13324
  1    47     -1.10380    0.13307
  1    48     -0.92095    0.07125
  1    49     -0.27020    0.00000


No gap

Forces in eV/Ang:
  0 Li   -0.00005    0.00003   -0.10084
  1 Li    0.00001    0.00002   -0.10073
  2 Li   -0.00001    0.00002   -0.10151
  3 Li    0.00002    0.00002   -0.10086
  4 Li   -0.00254    0.00362    0.03119
  5 Li    0.00011    0.00198    0.03392
  6 Li   -0.00011   -0.00098    0.03126
  7 Li    0.00228    0.00363    0.03117
  8 Li   -0.00231   -0.00326    0.03122
  9 Li    0.00020   -0.00159    0.03393
 10 Li    0.00016    0.00138    0.03123
 11 Li    0.00249   -0.00320    0.03120
 12 Li   -0.00573    0.00116    0.05037
 13 Li    0.00006    0.00104    0.05285
 14 Li   -0.00006    0.00109    0.11172
 15 Li    0.00570    0.00116    0.05105
 16 Li    0.00567    0.00742    0.01181
 17 Li   -0.00015    0.01128   -0.00113
 18 Li    0.00014    0.02219    0.01957
 19 Li   -0.00540    0.00755    0.01194
 20 Li    0.00549    0.01538    0.01188
 21 Li   -0.00028    0.01131   -0.00092
 22 Li   -0.00011    0.00059    0.01930
 23 Li   -0.00559    0.01515    0.01199
 24 Li   -0.03658    0.00154    0.00294
 25 Li    0.00201    0.00287    0.00445
 26 Li   -0.00087    0.00301    0.39664
 27 Li    0.03660    0.00151    0.00584
 28 Li    0.09580   -0.04152    0.14957
 29 Li    0.00092   -0.03364    0.09757
 30 Li    0.00280    0.20699    0.12087
 31 Li   -0.09500   -0.04083    0.13900
 32 Li    0.09633    0.06336    0.14185
 33 Li    0.00080    0.05461    0.09571
 34 Li    0.00261   -0.18846    0.13980
 35 Li   -0.09588    0.06290    0.13054
 36 N     0.00240    0.01890   -0.14709
 37 N     0.00009    0.01898   -0.14642
 38 N    -0.00011    0.01903   -0.13481
 39 N    -0.00263    0.01888   -0.14647
 40 N    -0.01167   -0.00408    0.01743
 41 N    -0.00026   -0.00437    0.01243
 42 N     0.00022   -0.00429    0.17464
 43 N     0.01184   -0.00405    0.01742
 44 N    -0.10641   -0.00864   -0.17046
 45 N     0.00865   -0.00175   -0.20051
 46 N    -0.00800    0.00284   -0.26191
 47 N     0.10915   -0.00882   -0.17380
 48 Li   -0.01298    0.01325   -0.69126

System changes: positions 

Initializing position-dependent things.

Density initialized from wave functions
     .----------------.  
    /|                |  
   / |                |  
  /  |                |  
 *   |                |  
 |   |                |  
 |   |                |  
 |   |                |  
 |   |                |  
 |   |                |  
 |   |                |  
 |   |                |  
 |   |                |  
 |   |                |  
 |   |                |  
 |   |                |  
 |   |                |  
 |   |                |  
 |   |                |  
 |   |                |  
 |   |                |  
 |   |                |  
 |   |                |  
 |   |                |  
 |   |                |  
 |   Li    LiLi       |  
 |  Li   N  Li   N    |  
 |   | Li  N    Li    |  
 |   |Li Li   Li LiN  |  
 |   |                |  
 |Li |   N LiLi  N    |  
 |  Li      Li        |  
 |N  | Li  N    Li    |  
 |   |Li Li   Li Li   |  
 Li  |                |  
 |Li |   N Li    N    |  
 |  Li      Li        |  
 |N  .-Li--N----Li----.  
 |  / Li Li   Li Li  /   
 Li/      Li        /    
 |/i       Li      /     
 *----------------*      

Positions:
   0 Li     1.753389    5.061850    0.000000    ( 0.0000,  0.0000,  0.0000)
   1 Li     0.000000    2.024928    0.000000    ( 0.0000,  0.0000,  0.0000)
   2 Li     3.506756    2.024928    0.000000    ( 0.0000,  0.0000,  0.0000)
   3 Li     5.260124    5.061850    0.000000    ( 0.0000,  0.0000,  0.0000)
   4 Li     1.753389    3.037256    1.946139    ( 0.0000,  0.0000,  0.0000)
   5 Li     0.000000    0.000334    1.946139    ( 0.0000,  0.0000,  0.0000)
   6 Li     3.506756    0.000334    1.946139    ( 0.0000,  0.0000,  0.0000)
   7 Li     5.260124    3.037256    1.946139    ( 0.0000,  0.0000,  0.0000)
   8 Li     1.753367    1.012631    1.946139    ( 0.0000,  0.0000,  0.0000)
   9 Li     0.000000    4.049553    1.946139    ( 0.0000,  0.0000,  0.0000)
  10 Li     3.506735    4.049553    1.946139    ( 0.0000,  0.0000,  0.0000)
  11 Li     5.260103    1.012631    1.946139    ( 0.0000,  0.0000,  0.0000)
  12 Li     1.753389    5.061850    3.920419    ( 0.0000,  0.0000,  0.0000)
  13 Li     0.000000    2.024928    3.920419    ( 0.0000,  0.0000,  0.0000)
  14 Li     3.506756    2.024928    3.920419    ( 0.0000,  0.0000,  0.0000)
  15 Li     5.260124    5.061850    3.920419    ( 0.0000,  0.0000,  0.0000)
  16 Li     1.751958    3.039571    5.885325    ( 0.0000,  0.0000,  0.0000)
  17 Li     0.000026    0.001081    5.887283    ( 0.0000,  0.0000,  0.0000)
  18 Li     3.506729   -0.000065    5.886617    ( 0.0000,  0.0000,  0.0000)
  19 Li     5.261527    3.039561    5.885353    ( 0.0000,  0.0000,  0.0000)
  20 Li     1.751971    1.012944    5.885387    ( 0.0000,  0.0000,  0.0000)
  21 Li     0.000032    4.051422    5.887271    ( 0.0000,  0.0000,  0.0000)
  22 Li     3.506741    4.052595    5.886521    ( 0.0000,  0.0000,  0.0000)
  23 Li     5.261531    1.012959    5.885415    ( 0.0000,  0.0000,  0.0000)
  24 Li     1.746209    5.062176    7.874353    ( 0.0000,  0.0000,  0.0000)
  25 Li     0.000064    2.025095    7.873898    ( 0.0000,  0.0000,  0.0000)
  26 Li     3.506790    2.025018    7.933492    ( 0.0000,  0.0000,  0.0000)
  27 Li     5.267296    5.062175    7.874933    ( 0.0000,  0.0000,  0.0000)
  28 Li     1.732435    3.051091    9.958372    ( 0.0000,  0.0000,  0.0000)
  29 Li     0.000278   -0.008415    9.992427    ( 0.0000,  0.0000,  0.0000)
  30 Li     3.506630   -0.018960    9.948221    ( 0.0000,  0.0000,  0.0000)
  31 Li     5.282232    3.051780    9.953488    ( 0.0000,  0.0000,  0.0000)
  32 Li     1.731531    1.001116    9.955323    ( 0.0000,  0.0000,  0.0000)
  33 Li     0.000277    4.060932    9.992513    ( 0.0000,  0.0000,  0.0000)
  34 Li     3.506661    4.069443    9.954708    ( 0.0000,  0.0000,  0.0000)
  35 Li     5.283199    1.000458    9.950170    ( 0.0000,  0.0000,  0.0000)
  36 N      1.753389    5.061910    1.929076    ( 0.0000,  0.0000,  0.0000)
  37 N      0.000000    2.024989    1.929076    ( 0.0000,  0.0000,  0.0000)
  38 N      3.506756    2.024989    1.929076    ( 0.0000,  0.0000,  0.0000)
  39 N      5.260124    5.061910    1.929076    ( 0.0000,  0.0000,  0.0000)
  40 N      1.753754    5.065767    5.858679    ( 0.0000,  0.0000,  0.0000)
  41 N      0.000014    2.028864    5.859128    ( 0.0000,  0.0000,  0.0000)
  42 N      3.506734    2.028928    5.885931    ( 0.0000,  0.0000,  0.0000)
  43 N      5.259728    5.065767    5.858865    ( 0.0000,  0.0000,  0.0000)
  44 N      1.761474    5.066031    9.808543    ( 0.0000,  0.0000,  0.0000)
  45 N     -0.000220    2.029327    9.807282    ( 0.0000,  0.0000,  0.0000)
  46 N      3.509123    2.026744   10.137570    ( 0.0000,  0.0000,  0.0000)
  47 N      5.251769    5.066074    9.810411    ( 0.0000,  0.0000,  0.0000)
  48 Li     3.531488    2.000273   11.999567    ( 0.0000,  0.0000,  0.0000)

Unit cell:
           periodic     x           y           z      points  spacing
  1. axis:    yes    7.013470    0.000000    0.000000    40     0.1753
  2. axis:    yes    0.000000    6.073843    0.000000    32     0.1898
  3. axis:    yes    0.000000    0.000000   29.936001   160     0.1871

  Lengths:   7.013470   6.073843  29.936001
  Angles:   90.000000  90.000000  90.000000

Effective grid spacing dv^(1/3) = 0.1840

                     log10-error:    total        iterations:
           time      wfs    density  energy       fermi  poisson
iter:   1  08:50:49  -2.88         -154.627778    3             
iter:   2  08:51:00  -3.67  -2.10  -154.650540    33            
iter:   3  08:51:11  -4.53  -2.02  -154.611870    4             
iter:   4  08:51:22  -4.43  -2.55  -154.606875    3             
iter:   5  08:51:33  -4.40  -2.80  -154.605876    2             
iter:   6  08:51:44  -4.72  -2.83  -154.610462    4             
iter:   7  08:51:55  -5.04  -2.68  -154.607605    3             
iter:   8  08:52:07  -5.17  -2.96  -154.604985    3             
iter:   9  08:52:18  -5.78  -3.02  -154.606470    3             
iter:  10  08:52:29  -6.15  -3.19  -154.605188    3             
iter:  11  08:52:40  -6.21  -3.30  -154.605371    2             
iter:  12  08:52:51  -6.72  -3.59  -154.605555    2             
iter:  13  08:53:02  -7.11  -3.88  -154.605599    2             
iter:  14  08:53:13  -8.00  -4.04  -154.605564    2             
iter:  15  08:53:25  -7.50  -4.13  -154.605596    2             
iter:  16  08:53:36  -7.79  -4.28  -154.605573    2             
iter:  17  08:53:47  -8.65  -4.48  -154.605573    2             

Converged after 17 iterations.

Dipole moment: (0.017000, -1.474532, 5.782529) |e|*Ang

Energy contributions relative to reference atoms: (reference = -25283.807400)

Kinetic:       +179.197012
Potential:     -130.282934
External:        +0.000000
XC:            -202.497590
Entropy (-ST):   -0.027057
Local:           -1.008532
--------------------------
Free energy:   -154.619102
Extrapolated:  -154.605573

Non-local vdW-DF-cx correlation energy: 15.339464
Semilocal GGA_X_LV_RPW86+LDA_C_PW energy: -1089.121816
(Not including atomic contributions)
Fermi level: -0.94611

Showing only first 2 kpts
 Kpt  Band  Eigenvalues  Occupancy
  0    46     -1.16526    0.13324
  0    47     -0.85882    0.00689
  0    48     -0.79332    0.00081
  0    49     -0.25180    0.00000

  1    46     -1.16744    0.13325
  1    47     -1.13352    0.13308
  1    48     -0.94986    0.07082
  1    49     -0.29694    0.00000


No gap

Forces in eV/Ang:
  0 Li   -0.00005    0.00003   -0.09969
  1 Li    0.00001    0.00002   -0.09952
  2 Li   -0.00001    0.00002   -0.10058
  3 Li    0.00002    0.00002   -0.09972
  4 Li   -0.00326    0.00406    0.03144
  5 Li    0.00011    0.00209    0.03472
  6 Li   -0.00011   -0.00177    0.03139
  7 Li    0.00299    0.00407    0.03142
  8 Li   -0.00303   -0.00371    0.03148
  9 Li    0.00020   -0.00171    0.03472
 10 Li    0.00016    0.00217    0.03135
 11 Li    0.00321   -0.00365    0.03145
 12 Li   -0.00678    0.00166    0.05569
 13 Li    0.00003    0.00148    0.05741
 14 Li   -0.00003    0.00158    0.15353
 15 Li    0.00674    0.00166    0.05648
 16 Li    0.00672    0.00412    0.02585
 17 Li   -0.00015    0.01196   -0.00191
 18 Li    0.00016    0.01837    0.03453
 19 Li   -0.00658    0.00417    0.02607
 20 Li    0.00668    0.01430    0.02592
 21 Li   -0.00022    0.00641   -0.00173
 22 Li    0.00001    0.00025    0.03428
 23 Li   -0.00676    0.01420    0.02613
 24 Li   -0.03534    0.00148   -0.02575
 25 Li    0.00264    0.00360   -0.02985
 26 Li   -0.00187    0.00488    0.29985
 27 Li    0.03557    0.00143   -0.02471
 28 Li    0.03923   -0.02170    0.13057
 29 Li    0.00104    0.01454    0.07502
 30 Li    0.00186    0.08986    0.10042
 31 Li   -0.03760   -0.02245    0.12098
 32 Li    0.04097    0.03955    0.12327
 33 Li    0.00101    0.00241    0.07232
 34 Li    0.00170   -0.07373    0.11924
 35 Li   -0.03962    0.04042    0.11296
 36 N     0.00312    0.01884   -0.15078
 37 N     0.00010    0.01892   -0.15095
 38 N    -0.00013    0.01903   -0.13183
 39 N    -0.00334    0.01882   -0.14972
 40 N    -0.00566   -0.00066    0.01301
 41 N    -0.00009   -0.00081    0.00960
 42 N     0.00015   -0.00107    0.14320
 43 N     0.00571   -0.00065    0.01214
 44 N    -0.02861   -0.00245   -0.12791
 45 N     0.00467    0.00024   -0.15379
 46 N    -0.00891    0.00658   -0.65367
 47 N     0.03178   -0.00255   -0.12964
 48 Li   -0.00876    0.00840   -0.19278

System changes: positions 

Initializing position-dependent things.

Density initialized from wave functions
     .----------------.  
    /|                |  
   / |                |  
  /  |                |  
 *   |                |  
 |   |                |  
 |   |                |  
 |   |                |  
 |   |                |  
 |   |                |  
 |   |                |  
 |   |                |  
 |   |                |  
 |   |                |  
 |   |                |  
 |   |                |  
 |   |                |  
 |   |                |  
 |   |                |  
 |   |                |  
 |   |                |  
 |   |                |  
 |   |                |  
 |   |                |  
 |   |                |  
 |   Li    LiLi       |  
 |  Li   N  Li   N    |  
 |   | Li  N    Li    |  
 |N  |Li Li   Li Li   |  
 |   |                |  
 |Li |   N Li    N    |  
 |  Li      Li        |  
 |N  | Li  N    Li    |  
 |   |Li Li   Li Li   |  
 Li  |    Li          |  
 |Li |   N Li    N    |  
 |  Li      Li        |  
 |N  .-Li--N----Li----.  
 |  / Li Li   Li Li  /   
 Li/      Li        /    
 |/i       Li      /     
 *----------------*      

Positions:
   0 Li     1.753389    5.061850    0.000000    ( 0.0000,  0.0000,  0.0000)
   1 Li     0.000000    2.024928    0.000000    ( 0.0000,  0.0000,  0.0000)
   2 Li     3.506756    2.024928    0.000000    ( 0.0000,  0.0000,  0.0000)
   3 Li     5.260124    5.061850    0.000000    ( 0.0000,  0.0000,  0.0000)
   4 Li     1.753389    3.037256    1.946139    ( 0.0000,  0.0000,  0.0000)
   5 Li     0.000000    0.000334    1.946139    ( 0.0000,  0.0000,  0.0000)
   6 Li     3.506756    0.000334    1.946139    ( 0.0000,  0.0000,  0.0000)
   7 Li     5.260124    3.037256    1.946139    ( 0.0000,  0.0000,  0.0000)
   8 Li     1.753367    1.012631    1.946139    ( 0.0000,  0.0000,  0.0000)
   9 Li     0.000000    4.049553    1.946139    ( 0.0000,  0.0000,  0.0000)
  10 Li     3.506735    4.049553    1.946139    ( 0.0000,  0.0000,  0.0000)
  11 Li     5.260103    1.012631    1.946139    ( 0.0000,  0.0000,  0.0000)
  12 Li     1.753389    5.061850    3.920419    ( 0.0000,  0.0000,  0.0000)
  13 Li     0.000000    2.024928    3.920419    ( 0.0000,  0.0000,  0.0000)
  14 Li     3.506756    2.024928    3.920419    ( 0.0000,  0.0000,  0.0000)
  15 Li     5.260124    5.061850    3.920419    ( 0.0000,  0.0000,  0.0000)
  16 Li     1.752246    3.039904    5.886072    ( 0.0000,  0.0000,  0.0000)
  17 Li     0.000019    0.001648    5.887194    ( 0.0000,  0.0000,  0.0000)
  18 Li     3.506736    0.000967    5.887779    ( 0.0000,  0.0000,  0.0000)
  19 Li     5.261249    3.039898    5.886107    ( 0.0000,  0.0000,  0.0000)
  20 Li     1.752253    1.013691    5.886138    ( 0.0000,  0.0000,  0.0000)
  21 Li     0.000020    4.051926    5.887192    ( 0.0000,  0.0000,  0.0000)
  22 Li     3.506738    4.052646    5.887668    ( 0.0000,  0.0000,  0.0000)
  23 Li     5.261245    1.013698    5.886174    ( 0.0000,  0.0000,  0.0000)
  24 Li     1.744345    5.062259    7.874262    ( 0.0000,  0.0000,  0.0000)
  25 Li     0.000174    2.025252    7.873771    ( 0.0000,  0.0000,  0.0000)
  26 Li     3.506733    2.025197    7.950565    ( 0.0000,  0.0000,  0.0000)
  27 Li     5.269165    5.062256    7.874959    ( 0.0000,  0.0000,  0.0000)
  28 Li     1.735896    3.049613    9.964972    ( 0.0000,  0.0000,  0.0000)
  29 Li     0.000330   -0.009417    9.997059    ( 0.0000,  0.0000,  0.0000)
  30 Li     3.506748   -0.010931    9.953231    ( 0.0000,  0.0000,  0.0000)
  31 Li     5.278835    3.050322    9.959506    ( 0.0000,  0.0000,  0.0000)
  32 Li     1.735012    1.003635    9.961502    ( 0.0000,  0.0000,  0.0000)
  33 Li     0.000325    4.062929    9.997043    ( 0.0000,  0.0000,  0.0000)
  34 Li     3.506772    4.062277    9.960748    ( 0.0000,  0.0000,  0.0000)
  35 Li     5.279769    1.002968    9.955727    ( 0.0000,  0.0000,  0.0000)
  36 N      1.753389    5.061910    1.929076    ( 0.0000,  0.0000,  0.0000)
  37 N      0.000000    2.024989    1.929076    ( 0.0000,  0.0000,  0.0000)
  38 N      3.506756    2.024989    1.929076    ( 0.0000,  0.0000,  0.0000)
  39 N      5.260124    5.061910    1.929076    ( 0.0000,  0.0000,  0.0000)
  40 N      1.753290    5.065688    5.859458    ( 0.0000,  0.0000,  0.0000)
  41 N      0.000006    2.028777    5.859709    ( 0.0000,  0.0000,  0.0000)
  42 N      3.506741    2.028844    5.895222    ( 0.0000,  0.0000,  0.0000)
  43 N      5.260198    5.065690    5.859628    ( 0.0000,  0.0000,  0.0000)
  44 N      1.757624    5.065769    9.801694    ( 0.0000,  0.0000,  0.0000)
  45 N      0.000137    2.029351    9.798964    ( 0.0000,  0.0000,  0.0000)
  46 N      3.508739    2.027020   10.123815    ( 0.0000,  0.0000,  0.0000)
  47 N      5.255748    5.065806    9.803495    ( 0.0000,  0.0000,  0.0000)
  48 Li     3.530879    2.000880   11.970790    ( 0.0000,  0.0000,  0.0000)

Unit cell:
           periodic     x           y           z      points  spacing
  1. axis:    yes    7.013470    0.000000    0.000000    40     0.1753
  2. axis:    yes    0.000000    6.073843    0.000000    32     0.1898
  3. axis:    yes    0.000000    0.000000   29.936001   160     0.1871

  Lengths:   7.013470   6.073843  29.936001
  Angles:   90.000000  90.000000  90.000000

Effective grid spacing dv^(1/3) = 0.1840

                     log10-error:    total        iterations:
           time      wfs    density  energy       fermi  poisson
iter:   1  08:54:10  -3.07         -154.636163    3             
iter:   2  08:54:21  -4.25  -2.43  -154.638273    4             
[...]
           periodic     x           y           z      points  spacing
  1. axis:    yes    7.013470    0.000000    0.000000    40     0.1753
  2. axis:    yes    0.000000    6.073843    0.000000    32     0.1898
  3. axis:    yes    0.000000    0.000000   29.936001   160     0.1871

  Lengths:   7.013470   6.073843  29.936001
  Angles:   90.000000  90.000000  90.000000

Effective grid spacing dv^(1/3) = 0.1840

                     log10-error:    total        iterations:
           time      wfs    density  energy       fermi  poisson
iter:   1  09:57:43  -2.34         -154.782014    4             
iter:   2  09:57:54  -3.46  -2.29  -154.772050    3             
iter:   3  09:58:05  -4.30  -2.40  -154.769850    2             
iter:   4  09:58:16  -3.90  -2.47  -154.760434    3             
iter:   5  09:58:27  -4.77  -2.67  -154.762223    3             
iter:   6  09:58:39  -4.64  -2.81  -154.760079    3             
iter:   7  09:58:50  -5.54  -2.83  -154.760777    3             
iter:   8  09:59:01  -5.90  -3.16  -154.760240    2             
iter:   9  09:59:12  -6.19  -3.09  -154.760720    2             
iter:  10  09:59:23  -5.98  -3.41  -154.760933    2             
iter:  11  09:59:34  -7.01  -3.49  -154.760844    2             
iter:  12  09:59:46  -6.60  -3.56  -154.760802    2             
iter:  13  09:59:57  -7.25  -3.63  -154.760707    2             
iter:  14  10:00:08  -6.37  -3.74  -154.760649    2             
iter:  15  10:00:19  -7.45  -4.03  -154.760641    2             
iter:  16  10:00:30  -8.11  -4.07  -154.760653    2             

Converged after 16 iterations.

Dipole moment: (-0.300329, -2.642007, 5.707430) |e|*Ang

Energy contributions relative to reference atoms: (reference = -25283.807400)

Kinetic:       +179.020105
Potential:     -130.301166
External:        +0.000000
XC:            -202.440417
Entropy (-ST):   -0.021989
Local:           -1.028181
--------------------------
Free energy:   -154.771647
Extrapolated:  -154.760653

Non-local vdW-DF-cx correlation energy: 15.295579
Semilocal GGA_X_LV_RPW86+LDA_C_PW energy: -1089.036062
(Not including atomic contributions)
Fermi level: -0.94382

Showing only first 2 kpts
 Kpt  Band  Eigenvalues  Occupancy
  0    46     -1.24376    0.13333
  0    47     -0.85293    0.00615
  0    48     -0.74735    0.00019
  0    49     -0.26616    0.00000

  1    46     -1.31393    0.13333
  1    47     -1.15850    0.13323
  1    48     -0.88312    0.01557
  1    49     -0.30330    0.00000


No gap

Forces in eV/Ang:
  0 Li   -0.00030    0.00005   -0.10458
  1 Li    0.00004   -0.00005   -0.10385
  2 Li   -0.00004   -0.00001   -0.10366
  3 Li    0.00026    0.00004   -0.10418
  4 Li   -0.00328    0.00346    0.02823
  5 Li   -0.00031   -0.00073    0.02822
  6 Li    0.00031   -0.00071    0.02692
  7 Li    0.00302    0.00417    0.02848
  8 Li   -0.00319   -0.00370    0.02888
  9 Li   -0.00021   -0.00001    0.02799
 10 Li    0.00057   -0.00008    0.02584
 11 Li    0.00337   -0.00434    0.02921
 12 Li    0.09332    0.03868    0.07243
 13 Li   -0.00521    0.03099    0.08541
 14 Li    0.00532    0.01881    0.34586
 15 Li   -0.09336    0.03807    0.05657
 16 Li    0.02264   -0.00091   -0.05670
 17 Li   -0.00188   -0.05866   -0.00418
 18 Li    0.00046    0.02709    0.01367
 19 Li   -0.02232    0.00291   -0.06399
 20 Li    0.02192   -0.01206   -0.05553
 21 Li   -0.00175    0.04534    0.00586
 22 Li    0.00069   -0.04015    0.00479
 23 Li   -0.02128   -0.01541   -0.06263
 24 Li    0.08999    0.00124    0.00818
 25 Li   -0.00186    0.01520   -0.13282
 26 Li    0.00552    0.01832   -0.07926
 27 Li   -0.09610    0.00091   -0.00159
 28 Li   -0.04537    0.02453   -0.05859
 29 Li    0.00014    0.07797    0.03109
 30 Li    0.00090   -0.07789    0.06774
 31 Li    0.04228    0.02117   -0.06001
 32 Li   -0.05987   -0.03932   -0.05739
 33 Li    0.00111   -0.04482    0.00479
 34 Li    0.00154    0.06982    0.15131
 35 Li    0.05810   -0.03735   -0.05610
 36 N     0.00227    0.01469   -0.13103
 37 N     0.00040    0.01596   -0.14093
 38 N    -0.00040    0.01706   -0.11560
 39 N    -0.00244    0.01482   -0.14066
 40 N    -0.07640    0.00194    0.01312
 41 N     0.00093    0.00392    0.02039
 42 N    -0.00090    0.00293   -0.06278
 43 N     0.07666    0.00174    0.02144
 44 N     0.04486    0.01762    0.12087
 45 N    -0.00683    0.00701    0.06599
 46 N     0.00597   -0.01890    0.21533
 47 N    -0.05158    0.01800    0.15191
 48 Li    0.01344   -0.05082   -0.17799

System changes: positions 

Initializing position-dependent things.

Density initialized from wave functions
     .----------------.  
    /|                |  
   / |                |  
  /  |                |  
 *   |                |  
 |   |                |  
 |   |                |  
 |   |                |  
 |   |                |  
 |   |                |  
 |   |                |  
 |   |                |  
 |   |                |  
 |   |                |  
 |   |                |  
 |   |                |  
 |   |                |  
 |   |                |  
 |   |                |  
 |   |                |  
 |   |                |  
 |   |                |  
 |   |                |  
 |   |                |  
 |   |                |  
 |   |   N Li         |  
 |   |      Li   N   Li  
 |   | Li  N    Li    |  
 |N  |LiLi     Li Li  |  
 |   |    Li          |  
 |Li |   N Li    N    |  
 |  Li      Li        |  
 |N  | Li  N    Li    |  
 |   |Li Li   Li Li   |  
 Li  |    Li          |  
 |Li |   N Li    N    |  
 |  Li      Li        |  
 |N  .-Li--N----Li----.  
 |  / Li Li   Li Li  /   
 Li/      Li        /    
 |/i       Li      /     
 *----------------*      

Positions:
   0 Li     1.753389    5.061850    0.000000    ( 0.0000,  0.0000,  0.0000)
   1 Li     0.000000    2.024928    0.000000    ( 0.0000,  0.0000,  0.0000)
   2 Li     3.506756    2.024928    0.000000    ( 0.0000,  0.0000,  0.0000)
   3 Li     5.260124    5.061850    0.000000    ( 0.0000,  0.0000,  0.0000)
   4 Li     1.753389    3.037256    1.946139    ( 0.0000,  0.0000,  0.0000)
   5 Li     0.000000    0.000334    1.946139    ( 0.0000,  0.0000,  0.0000)
   6 Li     3.506756    0.000334    1.946139    ( 0.0000,  0.0000,  0.0000)
   7 Li     5.260124    3.037256    1.946139    ( 0.0000,  0.0000,  0.0000)
   8 Li     1.753367    1.012631    1.946139    ( 0.0000,  0.0000,  0.0000)
   9 Li     0.000000    4.049553    1.946139    ( 0.0000,  0.0000,  0.0000)
  10 Li     3.506735    4.049553    1.946139    ( 0.0000,  0.0000,  0.0000)
  11 Li     5.260103    1.012631    1.946139    ( 0.0000,  0.0000,  0.0000)
  12 Li     1.753389    5.061850    3.920419    ( 0.0000,  0.0000,  0.0000)
  13 Li     0.000000    2.024928    3.920419    ( 0.0000,  0.0000,  0.0000)
  14 Li     3.506756    2.024928    3.920419    ( 0.0000,  0.0000,  0.0000)
  15 Li     5.260124    5.061850    3.920419    ( 0.0000,  0.0000,  0.0000)
  16 Li     1.754854    3.074098    5.928872    ( 0.0000,  0.0000,  0.0000)
  17 Li     0.000096    0.046804    5.795323    ( 0.0000,  0.0000,  0.0000)
  18 Li     3.506909    0.030024    5.918665    ( 0.0000,  0.0000,  0.0000)
  19 Li     5.258775    3.072944    5.935461    ( 0.0000,  0.0000,  0.0000)
  20 Li     1.755596    1.047076    5.940909    ( 0.0000,  0.0000,  0.0000)
  21 Li     0.000118    4.073065    5.795055    ( 0.0000,  0.0000,  0.0000)
  22 Li     3.506900    4.095902    5.897982    ( 0.0000,  0.0000,  0.0000)
  23 Li     5.258082    1.048117    5.948094    ( 0.0000,  0.0000,  0.0000)
  24 Li     1.567654    5.090528    7.889155    ( 0.0000,  0.0000,  0.0000)
  25 Li     0.010600    2.062173    7.853956    ( 0.0000,  0.0000,  0.0000)
  26 Li     3.495292    2.107752    7.906076    ( 0.0000,  0.0000,  0.0000)
  27 Li     5.445877    5.089624    7.871004    ( 0.0000,  0.0000,  0.0000)
  28 Li     1.720944    3.102284    9.805643    ( 0.0000,  0.0000,  0.0000)
  29 Li    -0.004065    0.078970   10.369092    ( 0.0000,  0.0000,  0.0000)
  30 Li     3.508740    0.045166    9.798798    ( 0.0000,  0.0000,  0.0000)
  31 Li     5.295917    3.102408    9.776079    ( 0.0000,  0.0000,  0.0000)
  32 Li     1.706465    1.041178    9.769145    ( 0.0000,  0.0000,  0.0000)
  33 Li    -0.003036    4.086244   10.271846    ( 0.0000,  0.0000,  0.0000)
  34 Li     3.509698    4.110878    9.952280    ( 0.0000,  0.0000,  0.0000)
  35 Li     5.311003    1.040723    9.737884    ( 0.0000,  0.0000,  0.0000)
  36 N      1.753389    5.061910    1.929076    ( 0.0000,  0.0000,  0.0000)
  37 N      0.000000    2.024989    1.929076    ( 0.0000,  0.0000,  0.0000)
  38 N      3.506756    2.024989    1.929076    ( 0.0000,  0.0000,  0.0000)
  39 N      5.260124    5.061910    1.929076    ( 0.0000,  0.0000,  0.0000)
  40 N      1.745126    5.098227    5.857641    ( 0.0000,  0.0000,  0.0000)
  41 N      0.000715    2.061095    5.858802    ( 0.0000,  0.0000,  0.0000)
  42 N      3.506062    2.064285    5.915569    ( 0.0000,  0.0000,  0.0000)
  43 N      5.268253    5.098244    5.853143    ( 0.0000,  0.0000,  0.0000)
  44 N      1.735404    5.114596    9.842556    ( 0.0000,  0.0000,  0.0000)
  45 N      0.001984    2.077728    9.763884    ( 0.0000,  0.0000,  0.0000)
  46 N      3.508263    2.075317    9.868146    ( 0.0000,  0.0000,  0.0000)
  47 N      5.281981    5.114345    9.808175    ( 0.0000,  0.0000,  0.0000)
  48 Li     3.520849    1.978331   11.751465    ( 0.0000,  0.0000,  0.0000)

Unit cell:
           periodic     x           y           z      points  spacing
  1. axis:    yes    7.013470    0.000000    0.000000    40     0.1753
  2. axis:    yes    0.000000    6.073843    0.000000    32     0.1898
  3. axis:    yes    0.000000    0.000000   29.936001   160     0.1871

  Lengths:   7.013470   6.073843  29.936001
  Angles:   90.000000  90.000000  90.000000

Effective grid spacing dv^(1/3) = 0.1840

                     log10-error:    total        iterations:
           time      wfs    density  energy       fermi  poisson
iter:   1  10:00:53  -2.54         -154.843027    31            
iter:   2  10:01:04  -3.44  -1.91  -154.851850    4             
iter:   3  10:01:15  -4.23  -1.83  -154.789031    4             
iter:   4  10:01:26  -4.32  -2.35  -154.777858    3             
iter:   5  10:01:37  -3.95  -2.39  -154.773084    3             
iter:   6  10:01:48  -4.61  -2.71  -154.774855    3             
iter:   7  10:01:59  -5.23  -2.93  -154.773598    3             
iter:   8  10:02:10  -5.87  -3.22  -154.773162    2             
iter:   9  10:02:21  -5.55  -3.12  -154.774007    3             
iter:  10  10:02:32  -6.59  -3.38  -154.773582    2             
iter:  11  10:02:43  -6.69  -3.69  -154.773541    2             
iter:  12  10:02:54  -6.81  -3.78  -154.773630    2             
iter:  13  10:03:05  -7.54  -3.83  -154.773567    2             
iter:  14  10:03:16  -7.54  -3.95  -154.773572    2             
iter:  15  10:03:27  -7.60  -4.03  -154.773556    2             
iter:  16  10:03:38  -7.88  -4.12  -154.773567    2             
iter:  17  10:03:49  -7.46  -4.29  -154.773553    2             
iter:  18  10:04:00  -8.73  -4.67  -154.773554    1             

Converged after 18 iterations.

Dipole moment: (-0.228466, -2.624921, 5.712739) |e|*Ang

Energy contributions relative to reference atoms: (reference = -25283.807400)

Kinetic:       +178.983732
Potential:     -130.282950
External:        +0.000000
XC:            -202.430131
Entropy (-ST):   -0.021839
Local:           -1.033286
--------------------------
Free energy:   -154.784474
Extrapolated:  -154.773554

Non-local vdW-DF-cx correlation energy: 15.299586
Semilocal GGA_X_LV_RPW86+LDA_C_PW energy: -1089.029002
(Not including atomic contributions)
Fermi level: -0.94379

Showing only first 2 kpts
 Kpt  Band  Eigenvalues  Occupancy
  0    46     -1.24187    0.13333
  0    47     -0.85435    0.00644
  0    48     -0.74336    0.00017
  0    49     -0.26724    0.00000

  1    46     -1.31047    0.13333
  1    47     -1.16072    0.13324
  1    48     -0.88113    0.01469
  1    49     -0.30287    0.00000


No gap

Forces in eV/Ang:
  0 Li   -0.00030    0.00005   -0.10412
  1 Li    0.00005   -0.00002   -0.10343
  2 Li   -0.00004    0.00002   -0.10388
  3 Li    0.00027    0.00003   -0.10377
  4 Li   -0.00358    0.00365    0.02925
  5 Li   -0.00028   -0.00012    0.03004
  6 Li    0.00028   -0.00150    0.02812
  7 Li    0.00331    0.00430    0.02953
  8 Li   -0.00349   -0.00386    0.02994
  9 Li   -0.00018   -0.00059    0.02985
 10 Li    0.00055    0.00072    0.02698
 11 Li    0.00366   -0.00444    0.03030
 12 Li    0.07168    0.03718    0.03554
 13 Li   -0.00475    0.02777    0.04388
 14 Li    0.00490    0.01704    0.29981
 15 Li   -0.07176    0.03668    0.01990
 16 Li    0.01193    0.00021   -0.02529
 17 Li   -0.00128   -0.06906   -0.01300
 18 Li   -0.00005    0.02783    0.05234
 19 Li   -0.01160    0.00371   -0.03268
 20 Li    0.01068   -0.01245   -0.02495
 21 Li   -0.00118    0.05789   -0.00328
 22 Li    0.00008   -0.04217    0.04499
 23 Li   -0.01024   -0.01553   -0.03219
 24 Li    0.09511   -0.00124    0.02114
 25 Li   -0.00070    0.01338   -0.11322
 26 Li    0.00363    0.01398   -0.06703
 27 Li   -0.10023   -0.00135    0.01110
 28 Li    0.01757   -0.00033   -0.04218
 29 Li    0.00465    0.04357    0.06071
 30 Li    0.00289   -0.04315    0.07112
 31 Li   -0.02333   -0.00637   -0.04568
 32 Li    0.02016   -0.00953   -0.04855
 33 Li    0.00503   -0.02931    0.02373
 34 Li    0.00256    0.03950    0.16037
 35 Li   -0.02589   -0.00467   -0.05094
 36 N     0.00214    0.01469   -0.13186
 37 N     0.00053    0.01629   -0.14261
 38 N    -0.00051    0.01727   -0.11717
 39 N    -0.00229    0.01488   -0.13921
 40 N    -0.07374    0.00635    0.04200
 41 N     0.00018    0.00939    0.03966
 42 N    -0.00024    0.00903   -0.05775
 43 N     0.07452    0.00604    0.04670
 44 N     0.01143    0.02286    0.08210
 45 N    -0.00501    0.01084    0.01354
 46 N     0.00514   -0.00721    0.05532
 47 N    -0.02243    0.02399    0.13470
 48 Li    0.01019   -0.04881   -0.15079

System changes: positions 

Initializing position-dependent things.

Density initialized from wave functions
     .----------------.  
    /|                |  
   / |                |  
  /  |                |  
 *   |                |  
 |   |                |  
 |   |                |  
 |   |                |  
 |   |                |  
 |   |                |  
 |   |                |  
 |   |                |  
 |   |                |  
 |   |                |  
 |   |                |  
 |   |                |  
 |   |                |  
 |   |                |  
 |   |                |  
 |   |                |  
 |   |                |  
 |   |                |  
 |   |                |  
 |   |                |  
 |   |                |  
 |   |   N Li    N    |  
 |   |      Li       Li  
 |   | Li  N    Li    |  
 |N  |LiLi     Li Li  |  
 |   |    Li          |  
 |Li |   N Li    N    |  
 |  Li      Li        |  
 |N  | Li  N    Li    |  
 |   |Li Li   Li Li   |  
 Li  |    Li          |  
 |Li |   N Li    N    |  
 |  Li      Li        |  
 |N  .-Li--N----Li----.  
 |  / Li Li   Li Li  /   
 Li/      Li        /    
 |/i       Li      /     
 *----------------*      

Positions:
   0 Li     1.753389    5.061850    0.000000    ( 0.0000,  0.0000,  0.0000)
   1 Li     0.000000    2.024928    0.000000    ( 0.0000,  0.0000,  0.0000)
   2 Li     3.506756    2.024928    0.000000    ( 0.0000,  0.0000,  0.0000)
   3 Li     5.260124    5.061850    0.000000    ( 0.0000,  0.0000,  0.0000)
   4 Li     1.753389    3.037256    1.946139    ( 0.0000,  0.0000,  0.0000)
   5 Li     0.000000    0.000334    1.946139    ( 0.0000,  0.0000,  0.0000)
   6 Li     3.506756    0.000334    1.946139    ( 0.0000,  0.0000,  0.0000)
   7 Li     5.260124    3.037256    1.946139    ( 0.0000,  0.0000,  0.0000)
   8 Li     1.753367    1.012631    1.946139    ( 0.0000,  0.0000,  0.0000)
   9 Li     0.000000    4.049553    1.946139    ( 0.0000,  0.0000,  0.0000)
  10 Li     3.506735    4.049553    1.946139    ( 0.0000,  0.0000,  0.0000)
  11 Li     5.260103    1.012631    1.946139    ( 0.0000,  0.0000,  0.0000)
  12 Li     1.753389    5.061850    3.920419    ( 0.0000,  0.0000,  0.0000)
  13 Li     0.000000    2.024928    3.920419    ( 0.0000,  0.0000,  0.0000)
  14 Li     3.506756    2.024928    3.920419    ( 0.0000,  0.0000,  0.0000)
  15 Li     5.260124    5.061850    3.920419    ( 0.0000,  0.0000,  0.0000)
  16 Li     1.757841    3.076114    5.914142    ( 0.0000,  0.0000,  0.0000)
  17 Li     0.000059    0.050878    5.791231    ( 0.0000,  0.0000,  0.0000)
  18 Li     3.506915    0.031620    5.907189    ( 0.0000,  0.0000,  0.0000)
  19 Li     5.255794    3.074988    5.920498    ( 0.0000,  0.0000,  0.0000)
  20 Li     1.758607    1.049919    5.927691    ( 0.0000,  0.0000,  0.0000)
  21 Li     0.000082    4.073576    5.792156    ( 0.0000,  0.0000,  0.0000)
  22 Li     3.506914    4.099829    5.883109    ( 0.0000,  0.0000,  0.0000)
  23 Li     5.255090    1.050944    5.934761    ( 0.0000,  0.0000,  0.0000)
  24 Li     1.558307    5.094136    7.891144    ( 0.0000,  0.0000,  0.0000)
  25 Li     0.010603    2.066876    7.845688    ( 0.0000,  0.0000,  0.0000)
  26 Li     3.495723    2.117598    7.905602    ( 0.0000,  0.0000,  0.0000)
  27 Li     5.454302    5.093113    7.872789    ( 0.0000,  0.0000,  0.0000)
  28 Li     1.711398    3.109911    9.780712    ( 0.0000,  0.0000,  0.0000)
  29 Li    -0.005005    0.091626   10.418801    ( 0.0000,  0.0000,  0.0000)
  30 Li     3.508488    0.050453    9.798194    ( 0.0000,  0.0000,  0.0000)
  31 Li     5.305399    3.110300    9.749877    ( 0.0000,  0.0000,  0.0000)
  32 Li     1.692385    1.041172    9.741233    ( 0.0000,  0.0000,  0.0000)
  33 Li    -0.003793    4.089369   10.306450    ( 0.0000,  0.0000,  0.0000)
  34 Li     3.509650    4.114950    9.974463    ( 0.0000,  0.0000,  0.0000)
  35 Li     5.325191    1.040282    9.708963    ( 0.0000,  0.0000,  0.0000)
  36 N      1.753389    5.061910    1.929076    ( 0.0000,  0.0000,  0.0000)
  37 N      0.000000    2.024989    1.929076    ( 0.0000,  0.0000,  0.0000)
  38 N      3.506756    2.024989    1.929076    ( 0.0000,  0.0000,  0.0000)
  39 N      5.260124    5.061910    1.929076    ( 0.0000,  0.0000,  0.0000)
  40 N      1.744982    5.100495    5.850986    ( 0.0000,  0.0000,  0.0000)
  41 N      0.000739    2.063233    5.850128    ( 0.0000,  0.0000,  0.0000)
  42 N      3.506099    2.066807    5.912883    ( 0.0000,  0.0000,  0.0000)
  43 N      5.268290    5.100519    5.846139    ( 0.0000,  0.0000,  0.0000)
  44 N      1.733991    5.119709    9.855651    ( 0.0000,  0.0000,  0.0000)
  45 N      0.001527    2.083127    9.761051    ( 0.0000,  0.0000,  0.0000)
  46 N      3.508434    2.079054    9.861225    ( 0.0000,  0.0000,  0.0000)
  47 N      5.283200    5.119387    9.821507    ( 0.0000,  0.0000,  0.0000)
  48 Li     3.523508    1.967830   11.730709    ( 0.0000,  0.0000,  0.0000)

Unit cell:
           periodic     x           y           z      points  spacing
  1. axis:    yes    7.013470    0.000000    0.000000    40     0.1753
  2. axis:    yes    0.000000    6.073843    0.000000    32     0.1898
  3. axis:    yes    0.000000    0.000000   29.936001   160     0.1871

  Lengths:   7.013470   6.073843  29.936001
  Angles:   90.000000  90.000000  90.000000

Effective grid spacing dv^(1/3) = 0.1840

                     log10-error:    total        iterations:
           time      wfs    density  energy       fermi  poisson
iter:   1  10:04:22  -2.42         -154.874785    5             
iter:   2  10:04:33  -3.19  -1.86  -154.929738    4             
iter:   3  10:04:45  -3.89  -1.73  -154.797004    4             
iter:   4  10:04:56  -4.72  -2.42  -154.790581    3             
iter:   5  10:05:07  -4.17  -2.54  -154.788008    3             
iter:   6  10:05:18  -4.38  -2.46  -154.794636    4             
iter:   7  10:05:29  -5.17  -2.52  -154.795052    2             
