
  ___ ___ ___ _ _ _  
 |   |   |_  | | | | 
 | | | | | . | | | | 
 |__ |  _|___|_____|  20.1.0
 |___|_|             

User:   jngwng01@n716023
Date:   Mon Sep  6 11:31:50 2021
Arch:   x86_64
Pid:    16232
Python: 3.8.5
gpaw:   /uls/7/gpaw-20.1.0/lib/python3.8/site-packages/gpaw-20.1.0-py3.8-linux-x86_64.egg/gpaw
_gpaw:  /uls/7/gpaw-20.1.0/lib/python3.8/site-packages/gpaw-20.1.0-py3.8-linux-x86_64.egg/
        _gpaw.cpython-38-x86_64-linux-gnu.so
ase:    /uls/7/gpaw-20.1.0/lib/python3.8/site-packages/ase-3.20.1-py3.8.egg/ase (version 3.20.1)
numpy:  /uls/7/gpaw-20.1.0/lib/python3.8/site-packages/numpy (version 1.19.2)
scipy:  /uls/7/gpaw-20.1.0/lib/python3.8/site-packages/scipy-1.5.2-py3.8-linux-x86_64.egg/scipy (version 1.5.2)
libxc:  4.3.4
units:  Angstrom and eV
cores: 32
OMP_NUM_THREADS: 1

Input parameters:
  convergence: {eigenstates: 1e-07}
  kpts: [5 6 1]
  mode: {ecut: 500.0,
         gammacentered: False,
         name: pw}
  occupations: {name: fermi-dirac,
                width: 0.03}
  random: True
  xc: {backend: libvdwxc,
       libvdwxc_name: vdW-DF-cx,
       name: vdW-DF-cx,
       semilocal_xc: GGA_X_LV_RPW86+LDA_C_PW,
       setup_name: PBE,
       vdwcoef: 1.0}

System changes: positions, numbers, cell, pbc, initial_charges, initial_magmoms 

Initialize ...

Li-setup:
  name: Lithium
  id: 830b4218f175192f93f959cfc0aad614
  Z: 3
  valence: 1
  core: 2
  charge: 0.0
  file: /uls/7/gpaw-20.1.0/setups/gpaw-setups-0.9.20000/Li.PBE.gz
  compensation charges: gauss, rc=0.33, lmax=2
  cutoffs: 1.91(filt), 2.55(core),
  valence states:
                energy  radius
    2s(1.00)    -2.874   1.058
    2p(0.00)    -1.090   1.058
    *s          24.337   1.058

  Using partial waves for Li as LCAO basis

N-setup:
  name: Nitrogen
  id: f7500608b86eaa90eef8b1d9a670dc53
  Z: 7
  valence: 5
  core: 2
  charge: 0.0
  file: /uls/7/gpaw-20.1.0/setups/gpaw-setups-0.9.20000/N.PBE.gz
  compensation charges: gauss, rc=0.18, lmax=2
  cutoffs: 1.11(filt), 0.96(core),
  valence states:
                energy  radius
    2s(2.00)   -18.583   0.603
    2p(3.00)    -7.089   0.529
    *s           8.629   0.603
    *p          20.123   0.529
    *d           0.000   0.577

  Using partial waves for N as LCAO basis

Reference energy: -25283.807400

Spin-paired calculation

Occupation numbers:
  Fermi-Dirac: width=0.0300 eV

Convergence criteria:
  Maximum total energy change: 0.0005 eV / electron
  Maximum integral of absolute density change: 0.0001 electrons
  Maximum integral of absolute eigenstate change: 1e-07 eV^2
  Maximum number of iterations: 333

Symmetries present (total): 1

  ( 1  0  0)
  ( 0  1  0)
  ( 0  0  1)

30 k-points: 5 x 6 x 1 Monkhorst-Pack grid
15 k-points in the irreducible part of the Brillouin zone
       k-points in crystal coordinates                weights
   0:     0.00000000    0.08333333    0.00000000          2/30
   1:     0.00000000    0.25000000    0.00000000          2/30
   2:     0.00000000    0.41666667    0.00000000          2/30
   3:     0.20000000   -0.41666667    0.00000000          2/30
   4:     0.20000000   -0.25000000    0.00000000          2/30
   5:     0.20000000   -0.08333333    0.00000000          2/30
   6:     0.20000000    0.08333333    0.00000000          2/30
   7:     0.20000000    0.25000000    0.00000000          2/30
   8:     0.20000000    0.41666667    0.00000000          2/30
   9:     0.40000000   -0.41666667    0.00000000          2/30
          ...
  14:     0.40000000    0.41666667    0.00000000          2/30

Wave functions: Plane wave expansion
  Cutoff energy: 500.000 eV
  Number of coefficients (min, max): 32335, 32478
  Pulay-stress correction: 0.000000 eV/Ang^3 (de/decut=0.000000)
  Using FFTW library
  ScaLapack parameters: grid=1x1, blocksize=None
  Wavefunction extrapolation:
    Improved wavefunction reuse through dual PAW basis 

Eigensolver
   Davidson(niter=2, smin=None, normalize=True) 

Densities:
  Coarse grid: 40*32*160 grid
  Fine grid: 80*64*320 grid
  Total Charge: 0.000000 

Density mixing:
  Method: separate
  Backend: pulay
  Linear mixing parameter: 0.05
  Mixing with 5 old densities
  Damping of long wave oscillations: 50 

Hamiltonian:
  XC and Coulomb potentials evaluated on a 80*64*320 grid
  Using the vdW-DF-cx Exchange-Correlation functional
 

XC parameters: vdW-DF-cx with libvdwxc
  Mode: mpi with 32 cores
  Semilocal: GGA_X_LV_RPW86+LDA_C_PW with 2 nearest neighbor stencil
  Local blocksize: 3 x 64 x 320
  PAW datasets: PBE

Memory estimate:
  Process memory now: 214.28 MiB
  Calculator: 106.40 MiB
    Density: 24.81 MiB
      Arrays: 10.16 MiB
      Localized functions: 10.74 MiB
      Mixer: 3.91 MiB
    Hamiltonian: 6.90 MiB
      Arrays: 6.64 MiB
      XC: 0.00 MiB
      Poisson: 0.00 MiB
      vbar: 0.26 MiB
    Wavefunctions: 74.69 MiB
      Arrays psit_nG: 31.22 MiB
      Eigensolver: 34.31 MiB
      Projections: 0.08 MiB
      Projectors: 1.05 MiB
      PW-descriptor: 8.03 MiB

Total number of cores used: 32
Parallelization over k-points: 8
Domain decomposition: 1 x 1 x 4
                      2 x 2 x 8 (xc only)

Number of atoms: 49
Number of atomic orbitals: 196
Number of bands in calculation: 63
Number of valence electrons: 97
Bands to converge: occupied

... initialized

Initializing position-dependent things.

Density initialized from atomic densities
Creating initial wave functions:
  63 bands from LCAO basis set

     .----------------.  
    /|                |  
   / |                |  
  /  |                |  
 *   |                |  
 |   |                |  
 |   |                |  
 |   |                |  
 |   |                |  
 |   |                |  
 |   |                |  
 |   |                |  
 |   |                |  
 |   |                |  
 |   |                |  
 |   |                |  
 |   |                |  
 |   |                |  
 |   |                |  
 |   |                |  
 |   |                |  
 |   |                |  
 |   |                |  
 |   |                |  
 |   |                |  
 |   |   N  Lii  N   Li  
 |   |     Li         |  
 |   | Li  N    Li    |  
 |   |LiLi     Li Li  |  
 |   |                |  
 |   |   N Li    N Li |  
 |  Li      Li        |  
 |   | Li  N    Li N  |  
 |   |Li LLi  Li Li   |  
 Li  |                |  
 |Li |   N Li    N    |  
 |  Li      Li        |  
 |N  .-Li--N----Li----.  
 |  / Li Li   Li Li  /   
 Li/      Li        /    
 |/i       Li      /     
 *----------------*      

Positions:
   0 Li     1.753389    5.061850    0.000000    ( 0.0000,  0.0000,  0.0000)
   1 Li     0.000000    2.024928    0.000000    ( 0.0000,  0.0000,  0.0000)
   2 Li     3.506756    2.024928    0.000000    ( 0.0000,  0.0000,  0.0000)
   3 Li     5.260124    5.061850    0.000000    ( 0.0000,  0.0000,  0.0000)
   4 Li     1.753389    3.037256    1.946139    ( 0.0000,  0.0000,  0.0000)
   5 Li     0.000000    0.000334    1.946139    ( 0.0000,  0.0000,  0.0000)
   6 Li     3.506756    0.000334    1.946139    ( 0.0000,  0.0000,  0.0000)
   7 Li     5.260124    3.037256    1.946139    ( 0.0000,  0.0000,  0.0000)
   8 Li     1.753367    1.012631    1.946139    ( 0.0000,  0.0000,  0.0000)
   9 Li     0.000000    4.049553    1.946139    ( 0.0000,  0.0000,  0.0000)
  10 Li     3.506735    4.049553    1.946139    ( 0.0000,  0.0000,  0.0000)
  11 Li     5.260103    1.012631    1.946139    ( 0.0000,  0.0000,  0.0000)
  12 Li     1.744970    5.082030    3.988251    ( 0.0000,  0.0000,  0.0000)
  13 Li     0.000569    2.027091    3.905779    ( 0.0000,  0.0000,  0.0000)
  14 Li     3.505659    2.017999    3.959361    ( 0.0000,  0.0000,  0.0000)
  15 Li     5.266831    5.082110    3.993089    ( 0.0000,  0.0000,  0.0000)
  16 Li     1.754840    3.094140    5.784783    ( 0.0000,  0.0000,  0.0000)
  17 Li     0.000891    0.052042    5.964922    ( 0.0000,  0.0000,  0.0000)
  18 Li     3.504669    0.063898    6.137274    ( 0.0000,  0.0000,  0.0000)
  19 Li     5.257451    3.093889    5.798460    ( 0.0000,  0.0000,  0.0000)
  20 Li     1.758322    1.061992    5.827677    ( 0.0000,  0.0000,  0.0000)
  21 Li     0.001288    4.103828    5.972543    ( 0.0000,  0.0000,  0.0000)
  22 Li     3.504658    4.106816    6.037728    ( 0.0000,  0.0000,  0.0000)
  23 Li     5.254059    1.061792    5.840012    ( 0.0000,  0.0000,  0.0000)
  24 Li     1.529164    5.086966    8.017527    ( 0.0000,  0.0000,  0.0000)
  25 Li    -0.003117    2.109867    7.780310    ( 0.0000,  0.0000,  0.0000)
  26 Li     3.506216    2.170639    7.857228    ( 0.0000,  0.0000,  0.0000)
  27 Li     5.486452    5.083454    8.015528    ( 0.0000,  0.0000,  0.0000)
  28 Li     1.803034    3.178262    9.651263    ( 0.0000,  0.0000,  0.0000)
  29 Li    -0.003198    0.204281   10.681429    ( 0.0000,  0.0000,  0.0000)
  30 Li     3.502015   -0.027819    9.680911    ( 0.0000,  0.0000,  0.0000)
  31 Li     5.206928    3.182979    9.653356    ( 0.0000,  0.0000,  0.0000)
  32 Li     1.668499    1.066906    9.660141    ( 0.0000,  0.0000,  0.0000)
  33 Li    -0.001705    4.035286   10.503445    ( 0.0000,  0.0000,  0.0000)
  34 Li     3.499114    4.126616   10.707673    ( 0.0000,  0.0000,  0.0000)
  35 Li     5.344435    1.060419    9.634307    ( 0.0000,  0.0000,  0.0000)
  36 N      1.753389    5.061910    1.929076    ( 0.0000,  0.0000,  0.0000)
  37 N      0.000000    2.024989    1.929076    ( 0.0000,  0.0000,  0.0000)
  38 N      3.506756    2.024989    1.929076    ( 0.0000,  0.0000,  0.0000)
  39 N      5.260124    5.061910    1.929076    ( 0.0000,  0.0000,  0.0000)
  40 N      1.732070    5.112538    5.973488    ( 0.0000,  0.0000,  0.0000)
  41 N     -0.000889    2.076143    5.811219    ( 0.0000,  0.0000,  0.0000)
  42 N      3.505491    2.083090    5.928076    ( 0.0000,  0.0000,  0.0000)
  43 N      5.280790    5.112647    5.966455    ( 0.0000,  0.0000,  0.0000)
  44 N      1.728828    5.152850   10.026437    ( 0.0000,  0.0000,  0.0000)
  45 N     -0.004048    2.149032    9.643478    ( 0.0000,  0.0000,  0.0000)
  46 N      3.506525    2.067116    9.860318    ( 0.0000,  0.0000,  0.0000)
  47 N      5.277603    5.156228   10.039334    ( 0.0000,  0.0000,  0.0000)
  48 Li     3.575656    1.433458   11.657245    ( 0.0000,  0.0000,  0.0000)

Unit cell:
           periodic     x           y           z      points  spacing
  1. axis:    yes    7.013470    0.000000    0.000000    40     0.1753
  2. axis:    yes    0.000000    6.073843    0.000000    32     0.1898
  3. axis:    yes    0.000000    0.000000   29.936001   160     0.1871

  Lengths:   7.013470   6.073843  29.936001
  Angles:   90.000000  90.000000  90.000000

Effective grid spacing dv^(1/3) = 0.1840

                     log10-error:    total        iterations:
           time      wfs    density  energy       fermi  poisson
iter:   1  11:32:19                -186.291846    3             
iter:   2  11:32:30  -0.99  -0.51  -176.260784    32            
iter:   3  11:32:41  -0.37  -0.56  -183.963129    37            
iter:   4  11:32:52  -1.90  -0.52  -169.381282    35            
iter:   5  11:33:03  -2.83  -0.67  -167.561320    3             
iter:   6  11:33:14  -1.86  -0.68  -159.834622    29            
iter:   7  11:33:25  -1.58  -0.78  -157.108066    5             
iter:   8  11:33:36  -1.66  -0.87  -156.079394    5             
iter:   9  11:33:48  -2.20  -0.96  -156.549854    5             
iter:  10  11:33:59  -1.54  -0.94  -156.150175    32            
iter:  11  11:34:10  -2.48  -1.37  -156.210985    3             
iter:  12  11:34:21  -1.39  -1.36  -158.365775    31            
iter:  13  11:34:32  -2.27  -1.04  -156.306722    5             
iter:  14  11:34:43  -2.13  -1.32  -155.813747    3             
iter:  15  11:34:54  -2.32  -1.44  -155.303270    34            
iter:  16  11:35:05  -2.77  -1.72  -155.192602    4             
iter:  17  11:35:16  -3.61  -1.71  -155.181328    3             
iter:  18  11:35:27  -3.69  -1.71  -155.132605    3             
iter:  19  11:35:38  -4.09  -1.74  -155.112593    3             
iter:  20  11:35:49  -4.92  -1.75  -155.118603    3             
iter:  21  11:36:00  -4.14  -1.75  -155.189094    4             
iter:  22  11:36:12  -3.83  -1.68  -155.098761    3             
iter:  23  11:36:23  -3.17  -1.76  -155.048586    5             
iter:  24  11:36:34  -3.31  -1.93  -155.057326    4             
iter:  25  11:36:45  -3.97  -2.16  -155.060471    4             
iter:  26  11:36:56  -4.60  -2.29  -155.060070    4             
iter:  27  11:37:07  -4.64  -2.34  -155.059215    4             
iter:  28  11:37:18  -4.70  -2.39  -155.058952    3             
iter:  29  11:37:29  -4.65  -2.46  -155.058367    3             
iter:  30  11:37:40  -4.88  -2.55  -155.058245    3             
iter:  31  11:37:51  -4.34  -2.61  -155.059902    4             
iter:  32  11:38:02  -4.50  -2.72  -155.058666    4             
iter:  33  11:38:13  -5.21  -2.81  -155.059390    3             
iter:  34  11:38:24  -5.82  -3.05  -155.059007    3             
iter:  35  11:38:35  -6.43  -3.19  -155.059017    2             
iter:  36  11:38:46  -6.04  -3.24  -155.058940    3             
iter:  37  11:38:57  -6.46  -3.55  -155.058928    3             
iter:  38  11:39:08  -7.37  -3.65  -155.058917    2             
iter:  39  11:39:19  -6.50  -3.69  -155.058951    3             
iter:  40  11:39:30  -7.44  -3.72  -155.058929    3             
iter:  41  11:39:41  -6.50  -3.79  -155.058965    3             
iter:  42  11:39:52  -6.90  -3.94  -155.058901    3             
iter:  43  11:40:03  -7.54  -4.19  -155.058932    2             

Converged after 43 iterations.

Dipole moment: (0.445016, -2.897817, 5.399052) |e|*Ang

Energy contributions relative to reference atoms: (reference = -25283.807400)

Kinetic:       +167.870287
Potential:     -122.783271
External:        +0.000000
XC:            -199.102464
Entropy (-ST):   -0.020619
Local:           -1.033175
--------------------------
Free energy:   -155.069241
Extrapolated:  -155.058932

Non-local vdW-DF-cx correlation energy: 15.230585
Semilocal GGA_X_LV_RPW86+LDA_C_PW energy: -1086.525118
(Not including atomic contributions)
Fermi level: -0.85196

Showing only first 2 kpts
 Kpt  Band  Eigenvalues  Occupancy
  0    46     -1.37910    0.13333
  0    47     -0.77586    0.00978
  0    48     -0.63258    0.00009
  0    49     -0.26742    0.00000

  1    46     -1.40516    0.13333
  1    47     -1.07191    0.13325
  1    48     -0.76426    0.00680
  1    49     -0.24408    0.00000


No gap

Forces in eV/Ang:
  0 Li    0.00083   -0.00045   -0.11144
  1 Li   -0.00006   -0.00014   -0.12350
  2 Li    0.00008    0.00002   -0.11776
  3 Li   -0.00081   -0.00046   -0.11021
  4 Li    0.00478    0.01525    0.03943
  5 Li   -0.00203   -0.00929    0.03323
  6 Li    0.00145   -0.01088    0.04272
  7 Li   -0.00505    0.01724    0.04331
  8 Li    0.00193   -0.00598    0.02037
  9 Li   -0.00187    0.01089    0.05171
 10 Li    0.00167    0.00719    0.06559
 11 Li   -0.00177   -0.00798    0.02407
 12 Li    0.05882    0.04391   -0.08180
 13 Li   -0.01568    0.02627   -0.10099
 14 Li    0.01656    0.01347   -0.10251
 15 Li   -0.05698    0.04126   -0.12649
 16 Li   -0.02321   -0.00633    0.13991
 17 Li   -0.00825    0.11569   -0.03834
 18 Li    0.00605   -0.12399    0.10640
 19 Li    0.02318   -0.00304    0.09620
 20 Li   -0.02281   -0.03747    0.11656
 21 Li   -0.01002   -0.13983   -0.05627
 22 Li    0.00701    0.10897    0.11846
 23 Li    0.02181   -0.03817    0.07483
 24 Li    0.06944    0.03457    0.01907
 25 Li    0.02736   -0.01506   -0.24605
 26 Li   -0.01973    0.02551    0.33761
 27 Li   -0.07364    0.02594    0.04778
 28 Li   -0.03905    0.01684    0.05256
 29 Li   -0.00639   -0.12690   -0.13053
 30 Li    0.00063   -0.19346   -0.12007
 31 Li    0.02611   -0.01047    0.06852
 32 Li   -0.00157    0.00197    0.11973
 33 Li    0.00576    0.05327   -0.06088
 34 Li    0.00420    0.09486   -0.00539
 35 Li    0.01514    0.02915    0.10631
 36 N    -0.00204    0.02907    0.10407
 37 N     0.00339    0.00481   -0.13007
 38 N    -0.00327    0.00354    0.05502
 39 N     0.00110    0.02936    0.10476
 40 N     0.11571    0.00959    0.01270
 41 N     0.00417    0.02957   -0.12469
 42 N     0.00249    0.00253   -0.46888
 43 N    -0.11638    0.00750    0.12227
 44 N     0.05583    0.08646    0.11523
 45 N    -0.00125    0.00686    0.30896
 46 N     0.01326    0.00852   -0.13676
 47 N    -0.07346    0.10353    0.08478
 48 Li   -0.00293   -0.21114   -0.22893

System changes: positions 

Initializing position-dependent things.

Density initialized from wave functions
     .----------------.  
    /|                |  
   / |                |  
  /  |                |  
 *   |                |  
 |   |                |  
 |   |                |  
 |   |                |  
 |   |                |  
 |   |                |  
 |   |                |  
 |   |                |  
 |   |                |  
 |   |                |  
 |   |                |  
 |   |                |  
 |   |                |  
 |   |                |  
 |   |                |  
 |   |                |  
 |   |                |  
 |   |                |  
 |   |                |  
 |   |                |  
 |   |                |  
 |   |   N  Lii  N   Li  
 |   |     Li         |  
 |   | Li  N    Li    |  
 |   |LiLi     Li Li  |  
 |   |                |  
 |   |   N Li    N Li |  
 |  Li      Li        |  
 |   | Li  N    Li N  |  
 |   |Li LLi  Li Li   |  
 Li  |                |  
 |Li |   N Li    N    |  
 |  Li      Li        |  
 |N  .-Li--N----Li----.  
 |  / Li Li   Li Li  /   
 Li/      Li        /    
 |/i       Li      /     
 *----------------*      

Positions:
   0 Li     1.753389    5.061850    0.000000    ( 0.0000,  0.0000,  0.0000)
   1 Li     0.000000    2.024928    0.000000    ( 0.0000,  0.0000,  0.0000)
   2 Li     3.506756    2.024928    0.000000    ( 0.0000,  0.0000,  0.0000)
   3 Li     5.260124    5.061850    0.000000    ( 0.0000,  0.0000,  0.0000)
   4 Li     1.753389    3.037256    1.946139    ( 0.0000,  0.0000,  0.0000)
   5 Li     0.000000    0.000334    1.946139    ( 0.0000,  0.0000,  0.0000)
   6 Li     3.506756    0.000334    1.946139    ( 0.0000,  0.0000,  0.0000)
   7 Li     5.260124    3.037256    1.946139    ( 0.0000,  0.0000,  0.0000)
   8 Li     1.753367    1.012631    1.946139    ( 0.0000,  0.0000,  0.0000)
   9 Li     0.000000    4.049553    1.946139    ( 0.0000,  0.0000,  0.0000)
  10 Li     3.506735    4.049553    1.946139    ( 0.0000,  0.0000,  0.0000)
  11 Li     5.260103    1.012631    1.946139    ( 0.0000,  0.0000,  0.0000)
  12 Li     1.745811    5.082657    3.987082    ( 0.0000,  0.0000,  0.0000)
  13 Li     0.000345    2.027466    3.904336    ( 0.0000,  0.0000,  0.0000)
  14 Li     3.505895    2.018191    3.957896    ( 0.0000,  0.0000,  0.0000)
  15 Li     5.266017    5.082699    3.991282    ( 0.0000,  0.0000,  0.0000)
  16 Li     1.754509    3.094049    5.786782    ( 0.0000,  0.0000,  0.0000)
  17 Li     0.000773    0.053695    5.964374    ( 0.0000,  0.0000,  0.0000)
  18 Li     3.504756    0.062126    6.138794    ( 0.0000,  0.0000,  0.0000)
  19 Li     5.257782    3.093845    5.799834    ( 0.0000,  0.0000,  0.0000)
  20 Li     1.757996    1.061456    5.829342    ( 0.0000,  0.0000,  0.0000)
  21 Li     0.001145    4.101830    5.971739    ( 0.0000,  0.0000,  0.0000)
  22 Li     3.504759    4.108372    6.039420    ( 0.0000,  0.0000,  0.0000)
  23 Li     5.254371    1.061246    5.841081    ( 0.0000,  0.0000,  0.0000)
  24 Li     1.530156    5.087460    8.017800    ( 0.0000,  0.0000,  0.0000)
  25 Li    -0.002726    2.109651    7.776795    ( 0.0000,  0.0000,  0.0000)
  26 Li     3.505934    2.171003    7.862051    ( 0.0000,  0.0000,  0.0000)
  27 Li     5.485400    5.083825    8.016211    ( 0.0000,  0.0000,  0.0000)
  28 Li     1.802477    3.178502    9.652013    ( 0.0000,  0.0000,  0.0000)
  29 Li    -0.003290    0.202469   10.679565    ( 0.0000,  0.0000,  0.0000)
  30 Li     3.502024   -0.030582    9.679196    ( 0.0000,  0.0000,  0.0000)
  31 Li     5.207301    3.182829    9.654335    ( 0.0000,  0.0000,  0.0000)
  32 Li     1.668476    1.066934    9.661851    ( 0.0000,  0.0000,  0.0000)
  33 Li    -0.001623    4.036047   10.502575    ( 0.0000,  0.0000,  0.0000)
  34 Li     3.499174    4.127971   10.707596    ( 0.0000,  0.0000,  0.0000)
  35 Li     5.344651    1.060835    9.635826    ( 0.0000,  0.0000,  0.0000)
  36 N      1.753389    5.061910    1.929076    ( 0.0000,  0.0000,  0.0000)
  37 N      0.000000    2.024989    1.929076    ( 0.0000,  0.0000,  0.0000)
  38 N      3.506756    2.024989    1.929076    ( 0.0000,  0.0000,  0.0000)
  39 N      5.260124    5.061910    1.929076    ( 0.0000,  0.0000,  0.0000)
  40 N      1.733723    5.112675    5.973669    ( 0.0000,  0.0000,  0.0000)
  41 N     -0.000830    2.076566    5.809437    ( 0.0000,  0.0000,  0.0000)
  42 N      3.505527    2.083126    5.921378    ( 0.0000,  0.0000,  0.0000)
  43 N      5.279127    5.112754    5.968202    ( 0.0000,  0.0000,  0.0000)
  44 N      1.729625    5.154086   10.028083    ( 0.0000,  0.0000,  0.0000)
  45 N     -0.004066    2.149130    9.647892    ( 0.0000,  0.0000,  0.0000)
  46 N      3.506714    2.067238    9.858364    ( 0.0000,  0.0000,  0.0000)
  47 N      5.276553    5.157707   10.040545    ( 0.0000,  0.0000,  0.0000)
  48 Li     3.575614    1.430442   11.653974    ( 0.0000,  0.0000,  0.0000)

Unit cell:
           periodic     x           y           z      points  spacing
  1. axis:    yes    7.013470    0.000000    0.000000    40     0.1753
  2. axis:    yes    0.000000    6.073843    0.000000    32     0.1898
  3. axis:    yes    0.000000    0.000000   29.936001   160     0.1871

  Lengths:   7.013470   6.073843  29.936001
  Angles:   90.000000  90.000000  90.000000

Effective grid spacing dv^(1/3) = 0.1840

                     log10-error:    total        iterations:
           time      wfs    density  energy       fermi  poisson
iter:   1  11:40:26  -4.05         -155.073472    3             
iter:   2  11:40:38  -5.26  -2.93  -155.074111    3             
iter:   3  11:40:49  -6.07  -2.98  -155.073344    3             
iter:   4  11:41:00  -5.26  -3.06  -155.073246    3             
iter:   5  11:41:12  -6.41  -3.40  -155.073262    2             
iter:   6  11:41:23  -5.93  -3.44  -155.073159    2             
iter:   7  11:41:35  -6.22  -3.74  -155.073203    2             
iter:   8  11:41:46  -6.47  -3.62  -155.073162    2             
iter:   9  11:41:58  -7.64  -4.00  -155.073154    2             

Converged after 9 iterations.

Dipole moment: (0.443288, -2.853242, 5.402005) |e|*Ang

Energy contributions relative to reference atoms: (reference = -25283.807400)

Kinetic:       +167.856662
Potential:     -122.789304
External:        +0.000000
XC:            -199.106423
Entropy (-ST):   -0.020579
Local:           -1.023799
--------------------------
Free energy:   -155.083443
Extrapolated:  -155.073154

Non-local vdW-DF-cx correlation energy: 15.231103
Semilocal GGA_X_LV_RPW86+LDA_C_PW energy: -1086.531535
(Not including atomic contributions)
Fermi level: -0.85432

Showing only first 2 kpts
 Kpt  Band  Eigenvalues  Occupancy
  0    46     -1.37980    0.13333
  0    47     -0.77697    0.00941
  0    48     -0.63601    0.00009
  0    49     -0.26710    0.00000

  1    46     -1.40675    0.13333
  1    47     -1.07321    0.13324
  1    48     -0.76780    0.00706
  1    49     -0.24588    0.00000


No gap

Forces in eV/Ang:
  0 Li    0.00083   -0.00049   -0.11114
  1 Li   -0.00006   -0.00019   -0.12343
  2 Li    0.00008    0.00001   -0.11731
  3 Li   -0.00081   -0.00049   -0.11014
  4 Li    0.00507    0.01508    0.03926
  5 Li   -0.00176   -0.00938    0.03269
  6 Li    0.00119   -0.00975    0.04098
  7 Li   -0.00535    0.01696    0.04248
  8 Li    0.00212   -0.00548    0.01982
  9 Li   -0.00160    0.01125    0.05134
 10 Li    0.00141    0.00617    0.06437
 11 Li   -0.00197   -0.00738    0.02286
 12 Li    0.05847    0.04165   -0.06997
 13 Li   -0.01428    0.02612   -0.09378
 14 Li    0.01502    0.01354   -0.10475
 15 Li   -0.05656    0.03924   -0.10540
 16 Li   -0.01106   -0.00659    0.12741
 17 Li   -0.00735    0.08797   -0.03840
 18 Li    0.00563   -0.09658    0.09779
 19 Li    0.01104   -0.00406    0.08713
 20 Li   -0.01123   -0.03183    0.10453
 21 Li   -0.00877   -0.10820   -0.05612
 22 Li    0.00635    0.08304    0.10872
 23 Li    0.01035   -0.03218    0.06619
 24 Li    0.06394    0.03416    0.01966
 25 Li    0.02581   -0.01438   -0.18164
 26 Li   -0.01852    0.02428    0.26197
 27 Li   -0.06827    0.02551    0.04724
 28 Li   -0.03601    0.01785    0.05495
 29 Li   -0.00640   -0.12196   -0.12406
 30 Li    0.00060   -0.17608   -0.12529
 31 Li    0.02499   -0.00496    0.06997
 32 Li    0.00166    0.00566    0.11872
 33 Li    0.00468    0.05422   -0.05501
 34 Li    0.00397    0.08732   -0.00021
 35 Li    0.01111    0.02924    0.10358
 36 N    -0.00149    0.02959    0.10281
 37 N     0.00274    0.00490   -0.13674
 38 N    -0.00263    0.00306    0.04566
 39 N     0.00053    0.02986    0.10424
 40 N     0.08746    0.00812    0.01904
 41 N     0.00340    0.02237   -0.11460
 42 N     0.00258    0.00249   -0.38238
 43 N    -0.08854    0.00627    0.11177
 44 N     0.04910    0.07404    0.10695
 45 N     0.00036    0.00936    0.25989
 46 N     0.01060    0.00803   -0.11898
 47 N    -0.06530    0.08882    0.08114
 48 Li   -0.00281   -0.21312   -0.22233

System changes: positions 

Initializing position-dependent things.

Density initialized from wave functions
     .----------------.  
    /|                |  
   / |                |  
  /  |                |  
 *   |                |  
 |   |                |  
 |   |                |  
 |   |                |  
 |   |                |  
 |   |                |  
 |   |                |  
 |   |                |  
 |   |                |  
 |   |                |  
 |   |                |  
 |   |                |  
 |   |                |  
 |   |                |  
 |   |                |  
 |   |                |  
 |   |                |  
 |   |                |  
 |   |                |  
 |   |                |  
 |   |                |  
 |   |   N  Lii  N   Li  
 |   |     Li         |  
 |   | Li  N    Li    |  
 |   |LiLi     Li Li  |  
 |   |                |  
 |Li |   N Li    N    |  
 |  Li      Li        |  
 |   | Li  N    Li N  |  
 |   |Li LLi  Li Li   |  
 |   |            Li  |  
 |   |   N Li    N Li |  
 |  Li      Li        |  
 |N  .-Li--N----Li----.  
 |  / Li Li   Li Li  /   
 Li/      Li        /    
 |/i       Li      /     
 *----------------*      

Positions:
   0 Li     1.753389    5.061850    0.000000    ( 0.0000,  0.0000,  0.0000)
   1 Li     0.000000    2.024928    0.000000    ( 0.0000,  0.0000,  0.0000)
   2 Li     3.506756    2.024928    0.000000    ( 0.0000,  0.0000,  0.0000)
   3 Li     5.260124    5.061850    0.000000    ( 0.0000,  0.0000,  0.0000)
   4 Li     1.753389    3.037256    1.946139    ( 0.0000,  0.0000,  0.0000)
   5 Li     0.000000    0.000334    1.946139    ( 0.0000,  0.0000,  0.0000)
   6 Li     3.506756    0.000334    1.946139    ( 0.0000,  0.0000,  0.0000)
   7 Li     5.260124    3.037256    1.946139    ( 0.0000,  0.0000,  0.0000)
   8 Li     1.753367    1.012631    1.946139    ( 0.0000,  0.0000,  0.0000)
   9 Li     0.000000    4.049553    1.946139    ( 0.0000,  0.0000,  0.0000)
  10 Li     3.506735    4.049553    1.946139    ( 0.0000,  0.0000,  0.0000)
  11 Li     5.260103    1.012631    1.946139    ( 0.0000,  0.0000,  0.0000)
  12 Li     1.752143    5.087178    3.979442    ( 0.0000,  0.0000,  0.0000)
  13 Li    -0.001209    2.030295    3.894143    ( 0.0000,  0.0000,  0.0000)
  14 Li     3.507530    2.019657    3.946566    ( 0.0000,  0.0000,  0.0000)
  15 Li     5.259890    5.086959    3.979754    ( 0.0000,  0.0000,  0.0000)
  16 Li     1.753245    3.093337    5.800645    ( 0.0000,  0.0000,  0.0000)
  17 Li    -0.000028    0.063370    5.960217    ( 0.0000,  0.0000,  0.0000)
  18 Li     3.505367    0.051521    6.149429    ( 0.0000,  0.0000,  0.0000)
  19 Li     5.259044    3.093411    5.809317    ( 0.0000,  0.0000,  0.0000)
  20 Li     1.756717    1.057979    5.840725    ( 0.0000,  0.0000,  0.0000)
  21 Li     0.000188    4.089943    5.965663    ( 0.0000,  0.0000,  0.0000)
  22 Li     3.505450    4.117505    6.051244    ( 0.0000,  0.0000,  0.0000)
  23 Li     5.255554    1.057729    5.848295    ( 0.0000,  0.0000,  0.0000)
  24 Li     1.537109    5.091160    8.019925    ( 0.0000,  0.0000,  0.0000)
  25 Li     0.000078    2.108091    7.756778    ( 0.0000,  0.0000,  0.0000)
  26 Li     3.503922    2.173639    7.890827    ( 0.0000,  0.0000,  0.0000)
  27 Li     5.477979    5.086589    8.021328    ( 0.0000,  0.0000,  0.0000)
  28 Li     1.798562    3.180430    9.657950    ( 0.0000,  0.0000,  0.0000)
  29 Li    -0.003983    0.189237   10.666097    ( 0.0000,  0.0000,  0.0000)
  30 Li     3.502090   -0.049741    9.665659    ( 0.0000,  0.0000,  0.0000)
  31 Li     5.210012    3.182262    9.661903    ( 0.0000,  0.0000,  0.0000)
  32 Li     1.668638    1.067527    9.674711    ( 0.0000,  0.0000,  0.0000)
  33 Li    -0.001110    4.041912   10.496588    ( 0.0000,  0.0000,  0.0000)
  34 Li     3.499605    4.137466   10.707546    ( 0.0000,  0.0000,  0.0000)
  35 Li     5.345876    1.064001    9.647055    ( 0.0000,  0.0000,  0.0000)
  36 N      1.753389    5.061910    1.929076    ( 0.0000,  0.0000,  0.0000)
  37 N      0.000000    2.024989    1.929076    ( 0.0000,  0.0000,  0.0000)
  38 N      3.506756    2.024989    1.929076    ( 0.0000,  0.0000,  0.0000)
  39 N      5.260124    5.061910    1.929076    ( 0.0000,  0.0000,  0.0000)
  40 N      1.743346    5.113562    5.975696    ( 0.0000,  0.0000,  0.0000)
  41 N     -0.000458    2.079026    5.796975    ( 0.0000,  0.0000,  0.0000)
  42 N      3.505806    2.083396    5.879506    ( 0.0000,  0.0000,  0.0000)
  43 N      5.269389    5.113440    5.980361    ( 0.0000,  0.0000,  0.0000)
  44 N      1.734978    5.162170   10.039708    ( 0.0000,  0.0000,  0.0000)
  45 N     -0.004036    2.150129    9.676298    ( 0.0000,  0.0000,  0.0000)
  46 N      3.507877    2.068110    9.845385    ( 0.0000,  0.0000,  0.0000)
  47 N      5.269439    5.167405   10.049349    ( 0.0000,  0.0000,  0.0000)
  48 Li     3.575309    1.407378   11.629866    ( 0.0000,  0.0000,  0.0000)

Unit cell:
           periodic     x           y           z      points  spacing
  1. axis:    yes    7.013470    0.000000    0.000000    40     0.1753
  2. axis:    yes    0.000000    6.073843    0.000000    32     0.1898
  3. axis:    yes    0.000000    0.000000   29.936001   160     0.1871

  Lengths:   7.013470   6.073843  29.936001
  Angles:   90.000000  90.000000  90.000000

Effective grid spacing dv^(1/3) = 0.1840

                     log10-error:    total        iterations:
           time      wfs    density  energy       fermi  poisson
iter:   1  11:42:20  -2.42         -155.149679    4             
iter:   2  11:42:32  -3.68  -2.21  -155.142060    3             
iter:   3  11:42:43  -3.95  -2.24  -155.133666    3             
iter:   4  11:42:54  -3.87  -2.36  -155.127198    3             
iter:   5  11:43:05  -5.02  -2.55  -155.125214    3             
iter:   6  11:43:16  -4.27  -2.66  -155.124126    3             
iter:   7  11:43:27  -4.78  -2.83  -155.123920    3             
iter:   8  11:43:38  -5.06  -2.87  -155.123383    3             
iter:   9  11:43:50  -5.44  -3.10  -155.123053    3             
iter:  10  11:44:01  -6.56  -3.28  -155.123093    2             
iter:  11  11:44:12  -5.87  -3.30  -155.123046    2             
iter:  12  11:44:23  -5.93  -3.55  -155.123046    2             
iter:  13  11:44:34  -7.05  -3.63  -155.123043    2             
iter:  14  11:44:45  -6.76  -3.67  -155.123041    2             
iter:  15  11:44:56  -7.03  -3.83  -155.123006    2             
iter:  16  11:45:08  -7.31  -3.94  -155.123074    2             
iter:  17  11:45:19  -7.86  -4.06  -155.123047    2             

Converged after 17 iterations.

Dipole moment: (0.421650, -2.536247, 5.436923) |e|*Ang

Energy contributions relative to reference atoms: (reference = -25283.807400)

Kinetic:       +167.859111
Potential:     -122.777506
External:        +0.000000
XC:            -199.171316
Entropy (-ST):   -0.020383
Local:           -1.023144
--------------------------
Free energy:   -155.133238
Extrapolated:  -155.123047

Non-local vdW-DF-cx correlation energy: 15.235472
Semilocal GGA_X_LV_RPW86+LDA_C_PW energy: -1086.595001
(Not including atomic contributions)
Fermi level: -0.87508

Showing only first 2 kpts
 Kpt  Band  Eigenvalues  Occupancy
  0    46     -1.38762    0.13333
  0    47     -0.78974    0.00733
  0    48     -0.66437    0.00012
  0    49     -0.27074    0.00000

  1    46     -1.41824    0.13333
  1    47     -1.08651    0.13322
  1    48     -0.79666    0.00910
  1    49     -0.26321    0.00000


No gap

Forces in eV/Ang:
  0 Li    0.00085   -0.00061   -0.10986
  1 Li    0.00004   -0.00025   -0.12286
  2 Li   -0.00002   -0.00002   -0.11545
  3 Li   -0.00084   -0.00062   -0.10977
  4 Li    0.00834    0.01430    0.03853
  5 Li    0.00011   -0.00881    0.02676
  6 Li   -0.00058   -0.00296    0.03043
  7 Li   -0.00871    0.01477    0.03707
  8 Li    0.00480   -0.00236    0.01597
  9 Li    0.00028    0.01277    0.04692
 10 Li   -0.00036    0.00047    0.05802
 11 Li   -0.00471   -0.00287    0.01444
 12 Li    0.06701    0.02495    0.00768
 13 Li   -0.00368    0.02425   -0.03875
 14 Li    0.00368    0.01392   -0.11543
 15 Li   -0.06513    0.02411    0.02323
 16 Li    0.06702   -0.00766    0.03546
 17 Li   -0.00289   -0.06641   -0.03863
 18 Li    0.00349    0.05922    0.03573
 19 Li   -0.06621   -0.00932    0.02272
 20 Li    0.06386    0.00449    0.01690
 21 Li   -0.00228    0.07132   -0.05409
 22 Li    0.00255   -0.06217    0.03600
 23 Li   -0.06320    0.00543    0.00583
 24 Li    0.03380    0.03300    0.02555
 25 Li    0.01224   -0.01230    0.15757
 26 Li   -0.00768    0.01525   -0.13437
 27 Li   -0.03900    0.02431    0.04693
 28 Li   -0.01471    0.02140    0.06956
 29 Li   -0.00667   -0.07937   -0.07778
 30 Li   -0.00013   -0.06836   -0.16053
 31 Li    0.01533    0.02496    0.07615
 32 Li    0.02262    0.02789    0.10923
 33 Li   -0.00183    0.05176   -0.01040
 34 Li    0.00225    0.04278    0.04113
 35 Li   -0.01501    0.02924    0.08138
 36 N    -0.00275    0.03349    0.08305
 37 N    -0.00095    0.00550   -0.18385
 38 N     0.00106    0.00091   -0.00901
 39 N     0.00188    0.03355    0.08672
 40 N    -0.07524   -0.00631    0.05624
 41 N    -0.00162   -0.02100   -0.01960
 42 N     0.00172   -0.00211    0.11457
 43 N     0.07331   -0.00678    0.03624
 44 N     0.01914   -0.00629    0.03445
 45 N     0.00926    0.00597   -0.04174
 46 N    -0.00548    0.00457   -0.00366
 47 N    -0.02247   -0.00603    0.03750
 48 Li   -0.00197   -0.22036   -0.16864

System changes: positions 

Initializing position-dependent things.

Density initialized from wave functions
     .----------------.  
    /|                |  
   / |                |  
  /  |                |  
 *   |                |  
 |   |                |  
 |   |                |  
 |   |                |  
 |   |                |  
 |   |                |  
 |   |                |  
 |   |                |  
 |   |                |  
 |   |                |  
 |   |                |  
 |   |                |  
 |   |                |  
 |   |                |  
 |   |                |  
 |   |                |  
 |   |                |  
 |   |                |  
 |   |                |  
 |   |                |  
 |   |                |  
 |   |   N  Lii  N   Li  
 |   |     Li         |  
 |   | Li  N    Li    |  
 |   |LiLi     Li Li  |  
 |   |                |  
 |Li |   N Li    N    |  
 |   |      Li       Li  
 |   | Li  N    Li N  |  
 |   |Li LLi  Li Li   |  
 |   |            Li  |  
 |   |   N Li    N Li |  
 |  Li      Li        |  
 |N  .-Li--N----Li----.  
 |  / Li Li   Li Li  /   
 Li/      Li        /    
 |/i       Li      /     
 *----------------*      

Positions:
   0 Li     1.753389    5.061850    0.000000    ( 0.0000,  0.0000,  0.0000)
   1 Li     0.000000    2.024928    0.000000    ( 0.0000,  0.0000,  0.0000)
   2 Li     3.506756    2.024928    0.000000    ( 0.0000,  0.0000,  0.0000)
   3 Li     5.260124    5.061850    0.000000    ( 0.0000,  0.0000,  0.0000)
   4 Li     1.753389    3.037256    1.946139    ( 0.0000,  0.0000,  0.0000)
   5 Li     0.000000    0.000334    1.946139    ( 0.0000,  0.0000,  0.0000)
   6 Li     3.506756    0.000334    1.946139    ( 0.0000,  0.0000,  0.0000)
   7 Li     5.260124    3.037256    1.946139    ( 0.0000,  0.0000,  0.0000)
   8 Li     1.753367    1.012631    1.946139    ( 0.0000,  0.0000,  0.0000)
   9 Li     0.000000    4.049553    1.946139    ( 0.0000,  0.0000,  0.0000)
  10 Li     3.506735    4.049553    1.946139    ( 0.0000,  0.0000,  0.0000)
  11 Li     5.260103    1.012631    1.946139    ( 0.0000,  0.0000,  0.0000)
  12 Li     1.754185    5.088281    3.978335    ( 0.0000,  0.0000,  0.0000)
  13 Li    -0.001513    2.031116    3.891927    ( 0.0000,  0.0000,  0.0000)
  14 Li     3.507847    2.020104    3.943000    ( 0.0000,  0.0000,  0.0000)
  15 Li     5.257910    5.088007    3.978253    ( 0.0000,  0.0000,  0.0000)
  16 Li     1.754060    3.093107    5.803398    ( 0.0000,  0.0000,  0.0000)
  17 Li    -0.000201    0.063932    5.958964    ( 0.0000,  0.0000,  0.0000)
  18 Li     3.505519    0.050703    6.151672    ( 0.0000,  0.0000,  0.0000)
  19 Li     5.258241    3.093200    5.811178    ( 0.0000,  0.0000,  0.0000)
  20 Li     1.757482    1.057490    5.842800    ( 0.0000,  0.0000,  0.0000)
  21 Li    -0.000001    4.089101    5.963867    ( 0.0000,  0.0000,  0.0000)
  22 Li     3.505600    4.118042    6.053679    ( 0.0000,  0.0000,  0.0000)
  23 Li     5.254784    1.057247    5.849537    ( 0.0000,  0.0000,  0.0000)
  24 Li     1.538741    5.092256    8.020655    ( 0.0000,  0.0000,  0.0000)
  25 Li     0.000710    2.107652    7.755902    ( 0.0000,  0.0000,  0.0000)
  26 Li     3.503485    2.174292    7.893471    ( 0.0000,  0.0000,  0.0000)
  27 Li     5.476193    5.087403    8.022864    ( 0.0000,  0.0000,  0.0000)
  28 Li     1.797712    3.181061    9.659958    ( 0.0000,  0.0000,  0.0000)
  29 Li    -0.004195    0.185918   10.662760    ( 0.0000,  0.0000,  0.0000)
  30 Li     3.502098   -0.053855    9.661050    ( 0.0000,  0.0000,  0.0000)
  31 Li     5.210678    3.182546    9.664270    ( 0.0000,  0.0000,  0.0000)
  32 Li     1.669007    1.068044    9.678430    ( 0.0000,  0.0000,  0.0000)
  33 Li    -0.001055    4.043632   10.495475    ( 0.0000,  0.0000,  0.0000)
  34 Li     3.499708    4.139642   10.708168    ( 0.0000,  0.0000,  0.0000)
  35 Li     5.345844    1.064952    9.650088    ( 0.0000,  0.0000,  0.0000)
  36 N      1.753389    5.061910    1.929076    ( 0.0000,  0.0000,  0.0000)
  37 N      0.000000    2.024989    1.929076    ( 0.0000,  0.0000,  0.0000)
  38 N      3.506756    2.024989    1.929076    ( 0.0000,  0.0000,  0.0000)
  39 N      5.260124    5.061910    1.929076    ( 0.0000,  0.0000,  0.0000)
  40 N      1.743762    5.113605    5.976872    ( 0.0000,  0.0000,  0.0000)
  41 N     -0.000422    2.079104    5.794702    ( 0.0000,  0.0000,  0.0000)
  42 N      3.505876    2.083404    5.874484    ( 0.0000,  0.0000,  0.0000)
  43 N      5.268927    5.113443    5.982855    ( 0.0000,  0.0000,  0.0000)
  44 N      1.736137    5.163370   10.042080    ( 0.0000,  0.0000,  0.0000)
  45 N     -0.003892    2.150365    9.680231    ( 0.0000,  0.0000,  0.0000)
  46 N      3.507981    2.068319    9.843249    ( 0.0000,  0.0000,  0.0000)
  47 N      5.267950    5.168868   10.051315    ( 0.0000,  0.0000,  0.0000)
  48 Li     3.575231    1.400337   11.623447    ( 0.0000,  0.0000,  0.0000)

Unit cell:
           periodic     x           y           z      points  spacing
  1. axis:    yes    7.013470    0.000000    0.000000    40     0.1753
  2. axis:    yes    0.000000    6.073843    0.000000    32     0.1898
  3. axis:    yes    0.000000    0.000000   29.936001   160     0.1871

  Lengths:   7.013470   6.073843  29.936001
  Angles:   90.000000  90.000000  90.000000

Effective grid spacing dv^(1/3) = 0.1840

                     log10-error:    total        iterations:
           time      wfs    density  energy       fermi  poisson
iter:   1  11:45:42  -3.92         -155.129478    3             
iter:   2  11:45:53  -5.07  -2.93  -155.130166    3             
iter:   3  11:46:04  -5.87  -2.97  -155.129335    3             
iter:   4  11:46:15  -5.24  -3.08  -155.129240    2             
iter:   5  11:46:27  -6.56  -3.34  -155.129232    2             
iter:   6  11:46:38  -5.84  -3.37  -155.129110    3             
iter:   7  11:46:49  -6.08  -3.71  -155.129144    2             
iter:   8  11:47:00  -6.40  -3.67  -155.129125    2             
iter:   9  11:47:11  -7.38  -3.96  -155.129102    2             
iter:  10  11:47:23  -8.14  -4.05  -155.129125    2             

Converged after 10 iterations.

Dipole moment: (0.410599, -2.467657, 5.438937) |e|*Ang

Energy contributions relative to reference atoms: (reference = -25283.807400)

Kinetic:       +167.901778
Potential:     -122.806505
External:        +0.000000
XC:            -199.192517
Entropy (-ST):   -0.020326
Local:           -1.021717
--------------------------
Free energy:   -155.139288
Extrapolated:  -155.129125

Non-local vdW-DF-cx correlation energy: 15.236560
Semilocal GGA_X_LV_RPW86+LDA_C_PW energy: -1086.613280
(Not including atomic contributions)
Fermi level: -0.88045

Showing only first 2 kpts
 Kpt  Band  Eigenvalues  Occupancy
  0    46     -1.38804    0.13333
  0    47     -0.79328    0.00692
  0    48     -0.67170    0.00013
  0    49     -0.27324    0.00000

  1    46     -1.42189    0.13333
  1    47     -1.08991    0.13321
  1    48     -0.80416    0.00972
  1    49     -0.26793    0.00000


No gap

Forces in eV/Ang:
  0 Li    0.00093   -0.00068   -0.11033
  1 Li    0.00006   -0.00031   -0.12358
  2 Li   -0.00004   -0.00003   -0.11645
  3 Li   -0.00092   -0.00068   -0.11047
  4 Li    0.00796    0.01455    0.03793
  5 Li    0.00036   -0.00911    0.02764
  6 Li   -0.00081   -0.00217    0.02724
  7 Li   -0.00834    0.01509    0.03578
  8 Li    0.00424   -0.00202    0.01492
  9 Li    0.00053    0.01365    0.04786
 10 Li   -0.00060   -0.00004    0.05554
 11 Li   -0.00415   -0.00260    0.01272
 12 Li    0.06303    0.02172    0.02244
 13 Li   -0.00201    0.02340   -0.02256
 14 Li    0.00191    0.01415   -0.09625
 15 Li   -0.06128    0.02113    0.04305
 16 Li    0.06253   -0.00711    0.02202
 17 Li   -0.00181   -0.07528   -0.03784
 18 Li    0.00260    0.06970    0.02671
 19 Li   -0.06165   -0.00952    0.01353
 20 Li    0.06003    0.00896    0.00356
 21 Li   -0.00099    0.08198   -0.05221
 22 Li    0.00145   -0.07044    0.02634
 23 Li   -0.05916    0.01021   -0.00335
 24 Li    0.02318    0.03063    0.02565
 25 Li    0.01017   -0.01131    0.17764
 26 Li   -0.00616    0.01548   -0.17101
 27 Li   -0.02827    0.02193    0.04322
 28 Li   -0.00810    0.01918    0.06820
 29 Li   -0.00640   -0.06853   -0.06894
 30 Li   -0.00059   -0.04829   -0.16676
 31 Li    0.01049    0.02595    0.07382
 32 Li    0.02601    0.03197    0.10548
 33 Li   -0.00242    0.04601   -0.00244
 34 Li    0.00165    0.03178    0.05020
 35 Li   -0.01942    0.02983    0.07585
 36 N     0.00048    0.03390    0.08002
 37 N    -0.00107    0.00548   -0.19606
 38 N     0.00121    0.00058   -0.02505
 39 N    -0.00130    0.03398    0.08415
 40 N    -0.07137   -0.00573    0.05132
 41 N    -0.00202   -0.02279   -0.00692
 42 N     0.00168   -0.00300    0.13213
 43 N     0.07013   -0.00594    0.02582
 44 N     0.00809   -0.00932    0.03325
 45 N     0.00919    0.00960   -0.05339
 46 N    -0.00590    0.00821    0.00178
 47 N    -0.01088   -0.00978    0.03963
 48 Li   -0.00157   -0.22331   -0.14882

System changes: positions 

Initializing position-dependent things.

Density initialized from wave functions
     .----------------.  
    /|                |  
   / |                |  
  /  |                |  
 *   |                |  
 |   |                |  
 |   |                |  
 |   |                |  
 |   |                |  
 |   |                |  
 |   |                |  
 |   |                |  
 |   |                |  
 |   |                |  
 |   |                |  
 |   |                |  
 |   |                |  
 |   |                |  
 |   |                |  
 |   |                |  
 |   |                |  
 |   |                |  
 |   |                |  
 |   |                |  
 |   |                |  
 |   |   N  Lii  N   Li  
 |   |     Li         |  
 |   | Li  N    Li    |  
 |   |LiLi     Li Li  |  
 |   |                |  
 |Li |   N Li    N    |  
 |   |      Li       Li  
 |   | Li  N    Li N  |  
 |   |Li LLi  Li Li   |  
 |   |            Li  |  
 |   |   N Li    N Li |  
 |  Li      Li        |  
 |N  .-Li--N----Li----.  
 |  / Li Li   Li Li  /   
 Li/      Li        /    
 |/i       Li      /     
 *----------------*      

Positions:
   0 Li     1.753389    5.061850    0.000000    ( 0.0000,  0.0000,  0.0000)
   1 Li     0.000000    2.024928    0.000000    ( 0.0000,  0.0000,  0.0000)
   2 Li     3.506756    2.024928    0.000000    ( 0.0000,  0.0000,  0.0000)
   3 Li     5.260124    5.061850    0.000000    ( 0.0000,  0.0000,  0.0000)
   4 Li     1.753389    3.037256    1.946139    ( 0.0000,  0.0000,  0.0000)
   5 Li     0.000000    0.000334    1.946139    ( 0.0000,  0.0000,  0.0000)
   6 Li     3.506756    0.000334    1.946139    ( 0.0000,  0.0000,  0.0000)
   7 Li     5.260124    3.037256    1.946139    ( 0.0000,  0.0000,  0.0000)
   8 Li     1.753367    1.012631    1.946139    ( 0.0000,  0.0000,  0.0000)
   9 Li     0.000000    4.049553    1.946139    ( 0.0000,  0.0000,  0.0000)
  10 Li     3.506735    4.049553    1.946139    ( 0.0000,  0.0000,  0.0000)
  11 Li     5.260103    1.012631    1.946139    ( 0.0000,  0.0000,  0.0000)
  12 Li     1.766957    5.094681    3.974001    ( 0.0000,  0.0000,  0.0000)
  13 Li    -0.003098    2.036212    3.880267    ( 0.0000,  0.0000,  0.0000)
  14 Li     3.509494    2.022957    3.921791    ( 0.0000,  0.0000,  0.0000)
  15 Li     5.245514    5.094110    3.972795    ( 0.0000,  0.0000,  0.0000)
  16 Li     1.760321    3.091676    5.817984    ( 0.0000,  0.0000,  0.0000)
  17 Li    -0.001127    0.063871    5.951087    ( 0.0000,  0.0000,  0.0000)
  18 Li     3.506365    0.049306    6.163961    ( 0.0000,  0.0000,  0.0000)
  19 Li     5.252080    3.091755    5.820991    ( 0.0000,  0.0000,  0.0000)
  20 Li     1.763426    1.055442    5.853179    ( 0.0000,  0.0000,  0.0000)
  21 Li    -0.000972    4.088008    5.952691    ( 0.0000,  0.0000,  0.0000)
  22 Li     3.506388    4.118046    6.066930    ( 0.0000,  0.0000,  0.0000)
  23 Li     5.248856    1.055294    5.855504    ( 0.0000,  0.0000,  0.0000)
  24 Li     1.547641    5.098980    8.025403    ( 0.0000,  0.0000,  0.0000)
  25 Li     0.004288    2.104992    7.758337    ( 0.0000,  0.0000,  0.0000)
  26 Li     3.501050    2.178280    7.899808    ( 0.0000,  0.0000,  0.0000)
  27 Li     5.466309    5.092339    8.032283    ( 0.0000,  0.0000,  0.0000)
  28 Li     1.793276    3.184944    9.672838    ( 0.0000,  0.0000,  0.0000)
  29 Li    -0.005525    0.166601   10.643226    ( 0.0000,  0.0000,  0.0000)
  30 Li     3.502097   -0.076231    9.630671    ( 0.0000,  0.0000,  0.0000)
  31 Li     5.214311    3.184984    9.679189    ( 0.0000,  0.0000,  0.0000)
  32 Li     1.672023    1.072076    9.701493    ( 0.0000,  0.0000,  0.0000)
  33 Li    -0.000879    4.053999   10.489928    ( 0.0000,  0.0000,  0.0000)
  34 Li     3.500279    4.151679   10.713645    ( 0.0000,  0.0000,  0.0000)
  35 Li     5.344788    1.071025    9.668422    ( 0.0000,  0.0000,  0.0000)
  36 N      1.753389    5.061910    1.929076    ( 0.0000,  0.0000,  0.0000)
  37 N      0.000000    2.024989    1.929076    ( 0.0000,  0.0000,  0.0000)
  38 N      3.506756    2.024989    1.929076    ( 0.0000,  0.0000,  0.0000)
  39 N      5.260124    5.061910    1.929076    ( 0.0000,  0.0000,  0.0000)
  40 N      1.743666    5.113646    5.984615    ( 0.0000,  0.0000,  0.0000)
  41 N     -0.000328    2.078637    5.783163    ( 0.0000,  0.0000,  0.0000)
  42 N      3.506297    2.083291    5.853434    ( 0.0000,  0.0000,  0.0000)
  43 N      5.268772    5.113282    5.996364    ( 0.0000,  0.0000,  0.0000)
  44 N      1.742016    5.169213   10.055629    ( 0.0000,  0.0000,  0.0000)
  45 N     -0.002817    2.152080    9.698512    ( 0.0000,  0.0000,  0.0000)
  46 N      3.508304    2.069879    9.832338    ( 0.0000,  0.0000,  0.0000)
  47 N      5.260269    5.176042   10.063105    ( 0.0000,  0.0000,  0.0000)
  48 Li     3.574781    1.355365   11.585447    ( 0.0000,  0.0000,  0.0000)

Unit cell:
           periodic     x           y           z      points  spacing
  1. axis:    yes    7.013470    0.000000    0.000000    40     0.1753
  2. axis:    yes    0.000000    6.073843    0.000000    32     0.1898
  3. axis:    yes    0.000000    0.000000   29.936001   160     0.1871

  Lengths:   7.013470   6.073843  29.936001
  Angles:   90.000000  90.000000  90.000000

Effective grid spacing dv^(1/3) = 0.1840

                     log10-error:    total        iterations:
           time      wfs    density  energy       fermi  poisson
iter:   1  11:47:46  -2.44         -155.177865    4             
iter:   2  11:47:57  -3.47  -2.10  -155.183608    5             
iter:   3  11:48:08  -4.34  -2.15  -155.162573    4             
iter:   4  11:48:20  -3.99  -2.39  -155.164473    4             
iter:   5  11:48:31  -4.38  -2.19  -155.160476    4             
iter:   6  11:48:43  -5.04  -2.48  -155.154114    4             
iter:   7  11:48:54  -4.55  -2.71  -155.152617    3             
iter:   8  11:49:06  -4.91  -3.07  -155.160624    3             
iter:   9  11:49:17  -5.93  -2.60  -155.156696    3             
iter:  10  11:49:28  -5.11  -2.75  -155.152158    4             
iter:  11  11:49:40  -5.80  -2.93  -155.153602    3             
iter:  12  11:49:51  -6.53  -3.07  -155.153096    3             
iter:  13  11:50:02  -6.17  -3.22  -155.152252    3             
iter:  14  11:50:14  -6.51  -3.40  -155.152777    3             
iter:  15  11:50:25  -7.27  -3.49  -155.152463    3             
iter:  16  11:50:36  -7.58  -3.88  -155.152465    2             
iter:  17  11:50:48  -7.30  -3.93  -155.152465    2             
iter:  18  11:50:59  -7.64  -4.29  -155.152481    2             

Converged after 18 iterations.

Dipole moment: (0.335321, -2.081709, 5.447337) |e|*Ang

Energy contributions relative to reference atoms: (reference = -25283.807400)

Kinetic:       +168.160196
Potential:     -122.966765
External:        +0.000000
XC:            -199.310499
Entropy (-ST):   -0.020365
Local:           -1.025231
--------------------------
Free energy:   -155.162664
Extrapolated:  -155.152481

Non-local vdW-DF-cx correlation energy: 15.242694
Semilocal GGA_X_LV_RPW86+LDA_C_PW energy: -1086.710640
(Not including atomic contributions)
Fermi level: -0.90908

Showing only first 2 kpts
 Kpt  Band  Eigenvalues  Occupancy
  0    46     -1.39116    0.13333
  0    47     -0.81214    0.00507
  0    48     -0.70893    0.00017
  0    49     -0.29110    0.00000

  1    46     -1.44046    0.13333
  1    47     -1.10748    0.13315
  1    48     -0.84204    0.01289
  1    49     -0.29604    0.00000


No gap

Forces in eV/Ang:
  0 Li    0.00050   -0.00085   -0.11025
  1 Li    0.00007   -0.00040   -0.12399
  2 Li   -0.00005   -0.00011   -0.11850
  3 Li   -0.00050   -0.00085   -0.11090
  4 Li    0.00522    0.01722    0.03491
  5 Li    0.00122   -0.00984    0.03187
  6 Li   -0.00157    0.00005    0.00844
  7 Li   -0.00566    0.01745    0.02891
  8 Li    0.00043   -0.00125    0.00908
  9 Li    0.00145    0.01809    0.05209
 10 Li   -0.00140   -0.00022    0.04138
 11 Li   -0.00039   -0.00160    0.00336
 12 Li    0.04629    0.00316    0.08998
 13 Li    0.00765    0.01654    0.07047
 14 Li   -0.00817    0.01572    0.03507
 15 Li   -0.04549    0.00389    0.12530
 16 Li    0.01199   -0.00288   -0.04634
 17 Li    0.00305   -0.06929   -0.02398
 18 Li   -0.00122    0.07724   -0.01495
 19 Li   -0.01087   -0.00831   -0.02887
 20 Li    0.01554    0.02661   -0.06263
 21 Li    0.00478    0.08102   -0.03163
 22 Li   -0.00324   -0.06322   -0.02008
 23 Li   -0.01363    0.02895   -0.04423
 24 Li   -0.03297    0.01718    0.02443
 25 Li   -0.00318   -0.00830    0.20197
 26 Li    0.00397    0.01303   -0.26925
 27 Li    0.02895    0.00818    0.02067
 28 Li    0.03313    0.00556    0.05340
 29 Li   -0.00438    0.00680   -0.02150
 30 Li   -0.00458    0.03668   -0.18905
 31 Li   -0.02331    0.02379    0.05276
 32 Li    0.04242    0.04724    0.07905
 33 Li   -0.00367   -0.00087    0.04179
 34 Li   -0.00220   -0.01345    0.09681
 35 Li   -0.04033    0.03092    0.03998
 36 N     0.01171    0.03791    0.07327
 37 N    -0.00357    0.00717   -0.24994
 38 N     0.00371   -0.00076   -0.08124
 39 N    -0.01227    0.03767    0.08130
 40 N    -0.04271   -0.01005    0.03435
 41 N    -0.00232   -0.02848    0.09181
 42 N    -0.00209   -0.00938    0.27837
 43 N     0.04433   -0.00901   -0.04261
 44 N    -0.01079   -0.03235   -0.02572
 45 N     0.00598    0.01418   -0.14948
 46 N    -0.00943    0.01039    0.01279
 47 N     0.01715   -0.03845    0.00023
 48 Li    0.00080   -0.23859   -0.03803

System changes: positions 

Initializing position-dependent things.

Density initialized from wave functions
     .----------------.  
    /|                |  
   / |                |  
  /  |                |  
 *   |                |  
 |   |                |  
 |   |                |  
 |   |                |  
 |   |                |  
 |   |                |  
 |   |                |  
 |   |                |  
 |   |                |  
 |   |                |  
 |   |                |  
 |   |                |  
 |   |                |  
 |   |                |  
 |   |                |  
 |   |                |  
 |   |                |  
 |   |                |  
 |   |                |  
 |   |                |  
 |   |                |  
 |   |   N  Lii  N   Li  
 |   |     Li         |  
 |   | Li  N    Li    |  
 |   |LiLi     Li Li  |  
 |   |                |  
 |Li |   N Li    N    |  
 |   |      Li       Li  
 |   | Li  N    Li N  |  
 |   |Li LLi  Li Li   |  
 |   |            Li  |  
 |   |   N Li    N Li |  
 |  Li      Li        |  
 |N  .-Li--N----Li----.  
 |  / Li Li   Li Li  /   
 Li/      Li        /    
 |/i       Li      /     
 *----------------*      

Positions:
   0 Li     1.753389    5.061850    0.000000    ( 0.0000,  0.0000,  0.0000)
   1 Li     0.000000    2.024928    0.000000    ( 0.0000,  0.0000,  0.0000)
   2 Li     3.506756    2.024928    0.000000    ( 0.0000,  0.0000,  0.0000)
   3 Li     5.260124    5.061850    0.000000    ( 0.0000,  0.0000,  0.0000)
   4 Li     1.753389    3.037256    1.946139    ( 0.0000,  0.0000,  0.0000)
   5 Li     0.000000    0.000334    1.946139    ( 0.0000,  0.0000,  0.0000)
   6 Li     3.506756    0.000334    1.946139    ( 0.0000,  0.0000,  0.0000)
   7 Li     5.260124    3.037256    1.946139    ( 0.0000,  0.0000,  0.0000)
   8 Li     1.753367    1.012631    1.946139    ( 0.0000,  0.0000,  0.0000)
   9 Li     0.000000    4.049553    1.946139    ( 0.0000,  0.0000,  0.0000)
  10 Li     3.506735    4.049553    1.946139    ( 0.0000,  0.0000,  0.0000)
  11 Li     5.260103    1.012631    1.946139    ( 0.0000,  0.0000,  0.0000)
  12 Li     1.772437    5.096856    3.974665    ( 0.0000,  0.0000,  0.0000)
  13 Li    -0.003431    2.038288    3.877739    ( 0.0000,  0.0000,  0.0000)
  14 Li     3.509833    2.024237    3.914491    ( 0.0000,  0.0000,  0.0000)
  15 Li     5.240182    5.096207    3.974153    ( 0.0000,  0.0000,  0.0000)
  16 Li     1.763685    3.091101    5.821502    ( 0.0000,  0.0000,  0.0000)
  17 Li    -0.001370    0.061091    5.947877    ( 0.0000,  0.0000,  0.0000)
  18 Li     3.506633    0.051704    6.167480    ( 0.0000,  0.0000,  0.0000)
  19 Li     5.248781    3.091047    5.823373    ( 0.0000,  0.0000,  0.0000)
  20 Li     1.766696    1.055516    5.854979    ( 0.0000,  0.0000,  0.0000)
  21 Li    -0.001181    4.090837    5.948193    ( 0.0000,  0.0000,  0.0000)
  22 Li     3.506585    4.115484    6.070587    ( 0.0000,  0.0000,  0.0000)
  23 Li     5.245641    1.055449    5.856309    ( 0.0000,  0.0000,  0.0000)
  24 Li     1.550050    5.101677    8.027568    ( 0.0000,  0.0000,  0.0000)
  25 Li     0.005373    2.103914    7.766079    ( 0.0000,  0.0000,  0.0000)
  26 Li     3.500359    2.179806    7.893640    ( 0.0000,  0.0000,  0.0000)
  27 Li     5.463472    5.094249    8.036024    ( 0.0000,  0.0000,  0.0000)
  28 Li     1.792419    3.186482    9.678491    ( 0.0000,  0.0000,  0.0000)
  29 Li    -0.006077    0.160217   10.636343    ( 0.0000,  0.0000,  0.0000)
  30 Li     3.502016   -0.082612    9.616383    ( 0.0000,  0.0000,  0.0000)
  31 Li     5.215157    3.186568    9.685469    ( 0.0000,  0.0000,  0.0000)
  32 Li     1.674002    1.074499    9.710951    ( 0.0000,  0.0000,  0.0000)
  33 Li    -0.000944    4.057698   10.489073    ( 0.0000,  0.0000,  0.0000)
  34 Li     3.500433    4.155375   10.717580    ( 0.0000,  0.0000,  0.0000)
  35 Li     5.343495    1.073694    9.675419    ( 0.0000,  0.0000,  0.0000)
  36 N      1.753389    5.061910    1.929076    ( 0.0000,  0.0000,  0.0000)
  37 N      0.000000    2.024989    1.929076    ( 0.0000,  0.0000,  0.0000)
  38 N      3.506756    2.024989    1.929076    ( 0.0000,  0.0000,  0.0000)
  39 N      5.260124    5.061910    1.929076    ( 0.0000,  0.0000,  0.0000)
  40 N      1.741035    5.113311    5.988430    ( 0.0000,  0.0000,  0.0000)
  41 N     -0.000384    2.077527    5.781573    ( 0.0000,  0.0000,  0.0000)
  42 N      3.506399    2.083047    5.856022    ( 0.0000,  0.0000,  0.0000)
  43 N      5.271324    5.112904    5.999707    ( 0.0000,  0.0000,  0.0000)
  44 N      1.743757    5.169865   10.059155    ( 0.0000,  0.0000,  0.0000)
  45 N     -0.002236    2.152812    9.699210    ( 0.0000,  0.0000,  0.0000)
  46 N      3.508083    2.070513    9.829913    ( 0.0000,  0.0000,  0.0000)
  47 N      5.258141    5.176908   10.066728    ( 0.0000,  0.0000,  0.0000)
  48 Li     3.574639    1.335339   11.571677    ( 0.0000,  0.0000,  0.0000)

Unit cell:
           periodic     x           y           z      points  spacing
  1. axis:    yes    7.013470    0.000000    0.000000    40     0.1753
  2. axis:    yes    0.000000    6.073843    0.000000    32     0.1898
  3. axis:    yes    0.000000    0.000000   29.936001   160     0.1871

  Lengths:   7.013470   6.073843  29.936001
  Angles:   90.000000  90.000000  90.000000

Effective grid spacing dv^(1/3) = 0.1840

                     log10-error:    total        iterations:
           time      wfs    density  energy       fermi  poisson
iter:   1  11:51:22  -3.30         -155.168902    2             
iter:   2  11:51:33  -4.15  -2.42  -155.175220    4             
iter:   3  11:51:45  -5.12  -2.50  -155.167398    3             
iter:   4  11:51:56  -4.57  -2.76  -155.172131    3             
iter:   5  11:52:08  -4.97  -2.32  -155.165692    4             
iter:   6  11:52:19  -6.02  -3.04  -155.165593    2             
iter:   7  11:52:30  -5.62  -3.09  -155.164806    3             
iter:   8  11:52:42  -6.42  -3.45  -155.164782    2             
iter:   9  11:52:53  -6.82  -3.47  -155.164976    3             
iter:  10  11:53:04  -7.31  -3.78  -155.164907    2             
iter:  11  11:53:16  -7.34  -3.88  -155.164947    2             
iter:  12  11:53:27  -7.59  -4.01  -155.164958    2             

Converged after 12 iterations.

Dipole moment: (0.299553, -1.972046, 5.439754) |e|*Ang

Energy contributions relative to reference atoms: (reference = -25283.807400)

Kinetic:       +168.207538
Potential:     -122.997702
External:        +0.000000
XC:            -199.341076
Entropy (-ST):   -0.020390
Local:           -1.023523
--------------------------
Free energy:   -155.175153
Extrapolated:  -155.164958

Non-local vdW-DF-cx correlation energy: 15.244470
Semilocal GGA_X_LV_RPW86+LDA_C_PW energy: -1086.738375
(Not including atomic contributions)
Fermi level: -0.91819

Showing only first 2 kpts
 Kpt  Band  Eigenvalues  Occupancy
  0    46     -1.39223    0.13333
  0    47     -0.81863    0.00466
  0    48     -0.72039    0.00018
  0    49     -0.29947    0.00000

  1    46     -1.44502    0.13333
  1    47     -1.11305    0.13313
  1    48     -0.85379    0.01395
  1    49     -0.30547    0.00000


No gap

Forces in eV/Ang:
  0 Li    0.00028   -0.00093   -0.11085
  1 Li    0.00005   -0.00054   -0.12508
  2 Li   -0.00003   -0.00021   -0.12141
  3 Li   -0.00028   -0.00093   -0.11139
  4 Li    0.00290    0.01882    0.03380
  5 Li    0.00116   -0.01058    0.03687
  6 Li   -0.00144   -0.00050    0.00255
  7 Li   -0.00336    0.01947    0.02718
  8 Li   -0.00228   -0.00168    0.00765
  9 Li    0.00143    0.02028    0.05636
 10 Li   -0.00132    0.00117    0.03643
 11 Li    0.00231   -0.00253    0.00145
 12 Li    0.03375   -0.00182    0.09879
 13 Li    0.00943    0.01337    0.09874
 14 Li   -0.00999    0.01633    0.11312
 15 Li   -0.03340   -0.00081    0.12710
 16 Li   -0.03549    0.00069   -0.05150
 17 Li    0.00462   -0.02454   -0.01446
 18 Li   -0.00246    0.03670   -0.01790
 19 Li    0.03616   -0.00468   -0.02962
 20 Li   -0.02839    0.02304   -0.06772
 21 Li    0.00616    0.03057   -0.01954
 22 Li   -0.00433   -0.01854   -0.02196
 23 Li    0.03008    0.02546   -0.04516
 24 Li   -0.05540    0.00942    0.02167
 25 Li   -0.00551   -0.00732    0.12596
 26 Li    0.00577    0.01337   -0.20952
 27 Li    0.05225    0.00021    0.00685
 28 Li    0.04688   -0.00198    0.03738
 29 Li   -0.00300    0.03284   -0.01334
 30 Li   -0.00566    0.04738   -0.18954
 31 Li   -0.03675    0.01377    0.03682
 32 Li    0.04179    0.04731    0.06525
 33 Li   -0.00232   -0.02439    0.04900
 34 Li   -0.00354   -0.02341    0.10709
 35 Li   -0.04104    0.03093    0.02540
 36 N     0.01852    0.03894    0.07267
 37 N    -0.00416    0.00799   -0.26870
 38 N     0.00426   -0.00070   -0.10512
 39 N    -0.01898    0.03866    0.08227
 40 N     0.02191   -0.00627    0.01005
 41 N    -0.00133   -0.01852    0.11049
 42 N    -0.00292   -0.01190    0.22415
 43 N    -0.01964   -0.00511   -0.06034
 44 N    -0.01459   -0.01903   -0.03990
 45 N     0.00173    0.01747   -0.10215
 46 N    -0.00607    0.00863   -0.00755
 47 N     0.02095   -0.02419   -0.01285
 48 Li    0.00191   -0.24339    0.00082

System changes: positions 

Initializing position-dependent things.

Density initialized from wave functions
     .----------------.  
    /|                |  
   / |                |  
  /  |                |  
 *   |                |  
 |   |                |  
 |   |                |  
 |   |                |  
 |   |                |  
 |   |                |  
 |   |                |  
 |   |                |  
 |   |                |  
 |   |                |  
 |   |                |  
 |   |                |  
 |   |                |  
 |   |                |  
 |   |                |  
 |   |                |  
 |   |                |  
 |   |                |  
 |   |                |  
 |   |                |  
 |   |                |  
 |   |   N  Lii  N   Li  
 |   |     Li         |  
 |   | Li  N    Li    |  
 |   |LiLi     Li Li  |  
 |   |                |  
 |Li |   N Li    N    |  
 |   |      Li       Li  
 |   | Li  N    Li N  |  
 |   |Li LLi  Li Li   |  
 |   |            Li  |  
 |   |   N Li    N Li |  
 |  Li      Li        |  
 |N  .-Li--N----Li----.  
 |  / Li Li   Li Li  /   
 Li/      Li        /    
 |/i       Li      /     
 *----------------*      

Positions:
   0 Li     1.753389    5.061850    0.000000    ( 0.0000,  0.0000,  0.0000)
   1 Li     0.000000    2.024928    0.000000    ( 0.0000,  0.0000,  0.0000)
   2 Li     3.506756    2.024928    0.000000    ( 0.0000,  0.0000,  0.0000)
   3 Li     5.260124    5.061850    0.000000    ( 0.0000,  0.0000,  0.0000)
   4 Li     1.753389    3.037256    1.946139    ( 0.0000,  0.0000,  0.0000)
   5 Li     0.000000    0.000334    1.946139    ( 0.0000,  0.0000,  0.0000)
   6 Li     3.506756    0.000334    1.946139    ( 0.0000,  0.0000,  0.0000)
   7 Li     5.260124    3.037256    1.946139    ( 0.0000,  0.0000,  0.0000)
   8 Li     1.753367    1.012631    1.946139    ( 0.0000,  0.0000,  0.0000)
   9 Li     0.000000    4.049553    1.946139    ( 0.0000,  0.0000,  0.0000)
  10 Li     3.506735    4.049553    1.946139    ( 0.0000,  0.0000,  0.0000)
  11 Li     5.260103    1.012631    1.946139    ( 0.0000,  0.0000,  0.0000)
  12 Li     1.782460    5.100249    3.979024    ( 0.0000,  0.0000,  0.0000)
  13 Li    -0.003633    2.042052    3.876749    ( 0.0000,  0.0000,  0.0000)
  14 Li     3.510024    2.026802    3.905801    ( 0.0000,  0.0000,  0.0000)
  15 Li     5.230410    5.099511    3.980777    ( 0.0000,  0.0000,  0.0000)
  16 Li     1.768709    3.090187    5.825206    ( 0.0000,  0.0000,  0.0000)
  17 Li    -0.001606    0.054861    5.942255    ( 0.0000,  0.0000,  0.0000)
  18 Li     3.506995    0.057645    6.172328    ( 0.0000,  0.0000,  0.0000)
  19 Li     5.243883    3.089741    5.826031    ( 0.0000,  0.0000,  0.0000)
  20 Li     1.771747    1.056502    5.855443    ( 0.0000,  0.0000,  0.0000)
  21 Li    -0.001307    4.097471    5.940327    ( 0.0000,  0.0000,  0.0000)
  22 Li     3.506767    4.109866    6.075468    ( 0.0000,  0.0000,  0.0000)
  23 Li     5.240733    1.056643    5.855977    ( 0.0000,  0.0000,  0.0000)
  24 Li     1.552204    5.106348    8.031770    ( 0.0000,  0.0000,  0.0000)
  25 Li     0.006899    2.101943    7.784609    ( 0.0000,  0.0000,  0.0000)
  26 Li     3.499473    2.182601    7.875055    ( 0.0000,  0.0000,  0.0000)
  27 Li     5.460521    5.097367    8.042327    ( 0.0000,  0.0000,  0.0000)
  28 Li     1.792489    3.188978    9.688861    ( 0.0000,  0.0000,  0.0000)
  29 Li    -0.007067    0.151023   10.624961    ( 0.0000,  0.0000,  0.0000)
  30 Li     3.501723   -0.091077    9.587347    ( 0.0000,  0.0000,  0.0000)
  31 Li     5.215428    3.189745    9.696798    ( 0.0000,  0.0000,  0.0000)
  32 Li     1.678540    1.079934    9.728199    ( 0.0000,  0.0000,  0.0000)
  33 Li    -0.001155    4.063008   10.489351    ( 0.0000,  0.0000,  0.0000)
  34 Li     3.500572    4.160517   10.727345    ( 0.0000,  0.0000,  0.0000)
  35 Li     5.340065    1.078936    9.687412    ( 0.0000,  0.0000,  0.0000)
  36 N      1.753389    5.061910    1.929076    ( 0.0000,  0.0000,  0.0000)
  37 N      0.000000    2.024989    1.929076    ( 0.0000,  0.0000,  0.0000)
  38 N      3.506756    2.024989    1.929076    ( 0.0000,  0.0000,  0.0000)
  39 N      5.260124    5.061910    1.929076    ( 0.0000,  0.0000,  0.0000)
  40 N      1.736227    5.112475    5.995217    ( 0.0000,  0.0000,  0.0000)
  41 N     -0.000549    2.074884    5.782833    ( 0.0000,  0.0000,  0.0000)
  42 N      3.506476    2.082259    5.870507    ( 0.0000,  0.0000,  0.0000)
  43 N      5.276044    5.112037    6.002844    ( 0.0000,  0.0000,  0.0000)
  44 N      1.746095    5.169819   10.063046    ( 0.0000,  0.0000,  0.0000)
  45 N     -0.001177    2.154416    9.695316    ( 0.0000,  0.0000,  0.0000)
  46 N      3.507435    2.071666    9.826598    ( 0.0000,  0.0000,  0.0000)
  47 N      5.255451    5.176953   10.071747    ( 0.0000,  0.0000,  0.0000)
  48 Li     3.574469    1.295537   11.549455    ( 0.0000,  0.0000,  0.0000)

Unit cell:
           periodic     x           y           z      points  spacing
  1. axis:    yes    7.013470    0.000000    0.000000    40     0.1753
  2. axis:    yes    0.000000    6.073843    0.000000    32     0.1898
  3. axis:    yes    0.000000    0.000000   29.936001   160     0.1871

  Lengths:   7.013470   6.073843  29.936001
  Angles:   90.000000  90.000000  90.000000

Effective grid spacing dv^(1/3) = 0.1840

                     log10-error:    total        iterations:
           time      wfs    density  energy       fermi  poisson
iter:   1  11:53:50  -2.72         -155.210348    3             
iter:   2  11:54:02  -3.48  -2.05  -155.235404    5             
iter:   3  11:54:13  -4.34  -2.00  -155.189106    4             
iter:   4  11:54:24  -4.37  -2.48  -155.184153    3             
iter:   5  11:54:36  -4.64  -2.54  -155.182760    3             
iter:   6  11:54:47  -5.60  -2.85  -155.183500    3             
iter:   7  11:54:59  -5.15  -2.94  -155.182561    3             
iter:   8  11:55:10  -5.75  -3.32  -155.182371    3             
iter:   9  11:55:21  -5.87  -3.21  -155.182760    3             
iter:  10  11:55:33  -6.97  -3.48  -155.182562    3             
iter:  11  11:55:44  -7.29  -3.68  -155.182591    2             
iter:  12  11:55:56  -7.06  -3.73  -155.182592    2             
iter:  13  11:56:07  -7.44  -3.88  -155.182580    2             
iter:  14  11:56:18  -7.90  -4.10  -155.182577    2             

Converged after 14 iterations.

Dipole moment: (0.235315, -1.826972, 5.422547) |e|*Ang

Energy contributions relative to reference atoms: (reference = -25283.807400)

Kinetic:       +168.221505
Potential:     -122.998051
External:        +0.000000
XC:            -199.371847
Entropy (-ST):   -0.020533
Local:           -1.023917
--------------------------
Free energy:   -155.192844
Extrapolated:  -155.182577

Non-local vdW-DF-cx correlation energy: 15.246568
Semilocal GGA_X_LV_RPW86+LDA_C_PW energy: -1086.767081
(Not including atomic contributions)
Fermi level: -0.92941

Showing only first 2 kpts
 Kpt  Band  Eigenvalues  Occupancy
  0    46     -1.38934    0.13333
  0    47     -0.82647    0.00418
  0    48     -0.73339    0.00019
  0    49     -0.31508    0.00000

  1    46     -1.44089    0.13333
  1    47     -1.11950    0.13310
  1    48     -0.86731    0.01494
  1    49     -0.31896    0.00000


No gap

Forces in eV/Ang:
  0 Li   -0.00008   -0.00100   -0.11109
  1 Li   -0.00004   -0.00062   -0.12517
  2 Li    0.00006   -0.00031   -0.12396
  3 Li    0.00007   -0.00099   -0.11129
  4 Li   -0.00218    0.02237    0.03168
  5 Li    0.00044   -0.01235    0.04844
  6 Li   -0.00058   -0.00299   -0.00753
  7 Li    0.00171    0.02385    0.02527
  8 Li   -0.00796   -0.00351    0.00585
  9 Li    0.00079    0.02460    0.06575
 10 Li   -0.00055    0.00542    0.02714
 11 Li    0.00798   -0.00533    0.00014
 12 Li    0.00994   -0.00869    0.08789
 13 Li    0.01053    0.00623    0.12519
 14 Li   -0.01096    0.01601    0.23210
 15 Li   -0.01047   -0.00737    0.09267
 16 Li   -0.11813    0.00723   -0.03986
 17 Li    0.00618    0.07281    0.00869
 18 Li   -0.00373   -0.05462   -0.01068
 19 Li    0.11772    0.00362   -0.01576
 20 Li   -0.10641    0.00778   -0.05568
 21 Li    0.00688   -0.08036    0.00877
 22 Li   -0.00476    0.07673   -0.01218
 23 Li    0.10729    0.00971   -0.03114
 24 Li   -0.09163   -0.00599    0.01237
 25 Li   -0.00644   -0.00635   -0.06187
 26 Li    0.00668    0.01469   -0.00784
 27 Li    0.09035   -0.01585   -0.02108
 28 Li    0.06628   -0.01207    0.00084
 29 Li   -0.00021    0.07434   -0.00547
 30 Li   -0.00668    0.03621   -0.17159
 31 Li   -0.05907   -0.00707    0.00292
 32 Li    0.03329    0.03889    0.03747
 33 Li    0.00247   -0.06764    0.05513
 34 Li   -0.00562   -0.02333    0.10991
 35 Li   -0.03497    0.02821    0.00037
 36 N     0.03184    0.04039    0.08826
 37 N    -0.00383    0.01038   -0.27593
 38 N     0.00384    0.00052   -0.11776
 39 N    -0.03224    0.04007    0.10005
 40 N     0.13561    0.00512   -0.04618
 41 N     0.00221    0.01193    0.11378
 42 N    -0.00395   -0.00748    0.01656
 43 N    -0.13289    0.00561   -0.07404
 44 N    -0.00645    0.01739   -0.05110
 45 N    -0.00824    0.02372    0.05513
 46 N     0.00467   -0.00695   -0.06558
 47 N     0.00881    0.01597   -0.03487
 48 Li    0.00454   -0.24581    0.04903

System changes: positions 

Initializing position-dependent things.

Density initialized from wave functions
     .----------------.  
    /|                |  
   / |                |  
  /  |                |  
 *   |                |  
 |   |                |  
 |   |                |  
 |   |                |  
 |   |                |  
 |   |                |  
 |   |                |  
 |   |                |  
 |   |                |  
 |   |                |  
 |   |                |  
 |   |                |  
 |   |                |  
 |   |                |  
 |   |                |  
 |   |                |  
 |   |                |  
 |   |                |  
 |   |                |  
 |   |                |  
 |   |                |  
 |   |   N  Lii  N   Li  
 |   |     Li         |  
 |   | Li  N    Li    |  
 |   |LiLi     Li Li  |  
 |   |                |  
 |Li |   N Li    N    |  
 |   |      Li       Li  
 |   | Li  N    Li N  |  
 |   |Li LLi  Li Li   |  
 |   |            Li  |  
 |   |   N Li    N Li |  
 |  Li      Li        |  
 |N  .-Li--N----Li----.  
 |  / Li Li   Li Li  /   
 Li/      Li        /    
 |/i       Li      /     
 *----------------*      

Positions:
   0 Li     1.753389    5.061850    0.000000    ( 0.0000,  0.0000,  0.0000)
   1 Li     0.000000    2.024928    0.000000    ( 0.0000,  0.0000,  0.0000)
   2 Li     3.506756    2.024928    0.000000    ( 0.0000,  0.0000,  0.0000)
   3 Li     5.260124    5.061850    0.000000    ( 0.0000,  0.0000,  0.0000)
   4 Li     1.753389    3.037256    1.946139    ( 0.0000,  0.0000,  0.0000)
   5 Li     0.000000    0.000334    1.946139    ( 0.0000,  0.0000,  0.0000)
   6 Li     3.506756    0.000334    1.946139    ( 0.0000,  0.0000,  0.0000)
   7 Li     5.260124    3.037256    1.946139    ( 0.0000,  0.0000,  0.0000)
   8 Li     1.753367    1.012631    1.946139    ( 0.0000,  0.0000,  0.0000)
   9 Li     0.000000    4.049553    1.946139    ( 0.0000,  0.0000,  0.0000)
  10 Li     3.506735    4.049553    1.946139    ( 0.0000,  0.0000,  0.0000)
  11 Li     5.260103    1.012631    1.946139    ( 0.0000,  0.0000,  0.0000)
  12 Li     1.786631    5.101519    3.981898    ( 0.0000,  0.0000,  0.0000)
  13 Li    -0.003580    2.043662    3.878082    ( 0.0000,  0.0000,  0.0000)
  14 Li     3.509961    2.028074    3.905786    ( 0.0000,  0.0000,  0.0000)
  15 Li     5.226332    5.100762    3.984515    ( 0.0000,  0.0000,  0.0000)
  16 Li     1.768806    3.089931    5.826318    ( 0.0000,  0.0000,  0.0000)
  17 Li    -0.001619    0.053781    5.940142    ( 0.0000,  0.0000,  0.0000)
  18 Li     3.507091    0.058879    6.174267    ( 0.0000,  0.0000,  0.0000)
  19 Li     5.243827    3.089285    5.827022    ( 0.0000,  0.0000,  0.0000)
  20 Li     1.772034    1.056927    5.855002    ( 0.0000,  0.0000,  0.0000)
  21 Li    -0.001269    4.098546    5.937309    ( 0.0000,  0.0000,  0.0000)
  22 Li     3.506779    4.109070    6.077418    ( 0.0000,  0.0000,  0.0000)
  23 Li     5.240513    1.057177    5.855525    ( 0.0000,  0.0000,  0.0000)
  24 Li     1.551745    5.108137    8.033627    ( 0.0000,  0.0000,  0.0000)
  25 Li     0.007449    2.101046    7.790401    ( 0.0000,  0.0000,  0.0000)
  26 Li     3.499191    2.183966    7.868406    ( 0.0000,  0.0000,  0.0000)
  27 Li     5.460642    5.098379    8.044537    ( 0.0000,  0.0000,  0.0000)
  28 Li     1.793471    3.189804    9.693003    ( 0.0000,  0.0000,  0.0000)
  29 Li    -0.007467    0.148359   10.620190    ( 0.0000,  0.0000,  0.0000)
  30 Li     3.501507   -0.094218    9.573164    ( 0.0000,  0.0000,  0.0000)
  31 Li     5.214662    3.190857    9.701379    ( 0.0000,  0.0000,  0.0000)
  32 Li     1.680814    1.082649    9.735724    ( 0.0000,  0.0000,  0.0000)
  33 Li    -0.001184    4.064121   10.490200    ( 0.0000,  0.0000,  0.0000)
  34 Li     3.500547    4.162367   10.732827    ( 0.0000,  0.0000,  0.0000)
  35 Li     5.338221    1.081468    9.692291    ( 0.0000,  0.0000,  0.0000)
  36 N      1.753389    5.061910    1.929076    ( 0.0000,  0.0000,  0.0000)
  37 N      0.000000    2.024989    1.929076    ( 0.0000,  0.0000,  0.0000)
  38 N      3.506756    2.024989    1.929076    ( 0.0000,  0.0000,  0.0000)
  39 N      5.260124    5.061910    1.929076    ( 0.0000,  0.0000,  0.0000)
  40 N      1.736618    5.112253    5.997156    ( 0.0000,  0.0000,  0.0000)
  41 N     -0.000568    2.074110    5.784818    ( 0.0000,  0.0000,  0.0000)
  42 N      3.506450    2.081862    5.875467    ( 0.0000,  0.0000,  0.0000)
  43 N      5.275657    5.111805    6.003164    ( 0.0000,  0.0000,  0.0000)
  44 N      1.747043    5.170236   10.063990    ( 0.0000,  0.0000,  0.0000)
  45 N     -0.000898    2.155428    9.695291    ( 0.0000,  0.0000,  0.0000)
  46 N      3.507285    2.071990    9.824003    ( 0.0000,  0.0000,  0.0000)
  47 N      5.254365    5.177415   10.073307    ( 0.0000,  0.0000,  0.0000)
  48 Li     3.574469    1.275801   11.541088    ( 0.0000,  0.0000,  0.0000)

Unit cell:
           periodic     x           y           z      points  spacing
  1. axis:    yes    7.013470    0.000000    0.000000    40     0.1753
  2. axis:    yes    0.000000    6.073843    0.000000    32     0.1898
  3. axis:    yes    0.000000    0.000000   29.936001   160     0.1871

  Lengths:   7.013470   6.073843  29.936001
  Angles:   90.000000  90.000000  90.000000

Effective grid spacing dv^(1/3) = 0.1840

                     log10-error:    total        iterations:
           time      wfs    density  energy       fermi  poisson
iter:   1  11:56:41  -3.50         -155.190794    3             
iter:   2  11:56:53  -4.42  -2.63  -155.195055    4             
iter:   3  11:57:04  -5.33  -2.66  -155.190886    3             
iter:   4  11:57:15  -4.92  -2.96  -155.190620    3             
iter:   5  11:57:26  -5.74  -2.66  -155.190045    3             
iter:   6  11:57:38  -6.23  -3.33  -155.189694    3             
iter:   7  11:57:49  -5.76  -2.95  -155.190386    3             
iter:   8  11:58:00  -6.50  -3.40  -155.190236    3             
iter:   9  11:58:12  -7.56  -3.56  -155.190121    2             
iter:  10  11:58:23  -6.69  -3.72  -155.189966    2             
iter:  11  11:58:34  -7.51  -3.96  -155.190025    2             
iter:  12  11:58:46  -8.23  -4.15  -155.190013    2             

Converged after 12 iterations.

Dipole moment: (0.213827, -1.779466, 5.420122) |e|*Ang

Energy contributions relative to reference atoms: (reference = -25283.807400)

Kinetic:       +168.169350
Potential:     -122.956099
External:        +0.000000
XC:            -199.367692
Entropy (-ST):   -0.020541
Local:           -1.025302
--------------------------
Free energy:   -155.200283
Extrapolated:  -155.190013

Non-local vdW-DF-cx correlation energy: 15.246813
Semilocal GGA_X_LV_RPW86+LDA_C_PW energy: -1086.765913
(Not including atomic contributions)
Fermi level: -0.93234

Showing only first 2 kpts
 Kpt  Band  Eigenvalues  Occupancy
  0    46     -1.38813    0.13333
  0    47     -0.82870    0.00408
  0    48     -0.73683    0.00020
  0    49     -0.31951    0.00000

  1    46     -1.43848    0.13333
  1    47     -1.12147    0.13309
  1    48     -0.87095    0.01526
  1    49     -0.32213    0.00000


No gap

Forces in eV/Ang:
  0 Li    0.00001   -0.00105   -0.11093
  1 Li   -0.00000   -0.00068   -0.12487
  2 Li    0.00003   -0.00035   -0.12461
  3 Li   -0.00002   -0.00105   -0.11088
  4 Li   -0.00292    0.02337    0.03203
  5 Li    0.00019   -0.01301    0.05325
  6 Li   -0.00026   -0.00304   -0.00922
  7 Li    0.00244    0.02516    0.02598
  8 Li   -0.00888   -0.00386    0.00660
  9 Li    0.00056    0.02627    0.06949
 10 Li   -0.00026    0.00629    0.02541
 11 Li    0.00889   -0.00604    0.00134
 12 Li    0.00307   -0.01120    0.07240
 13 Li    0.01033    0.00324    0.11916
 14 Li   -0.01070    0.01498    0.24365
 15 Li   -0.00394   -0.00980    0.06837
 16 Li   -0.12374    0.00961   -0.03182
 17 Li    0.00623    0.08477    0.01831
[...]
  29 Li    -0.014111   -0.040302    9.845965    ( 0.0000,  0.0000,  0.0000)
  30 Li     3.351964   -0.131600    9.486276    ( 0.0000,  0.0000,  0.0000)
  31 Li     5.199103    3.055923    9.862495    ( 0.0000,  0.0000,  0.0000)
  32 Li     1.774866    0.951028   10.578953    ( 0.0000,  0.0000,  0.0000)
  33 Li     0.015997    3.969725   10.588886    ( 0.0000,  0.0000,  0.0000)
  34 Li     3.403247    4.059361   10.656976    ( 0.0000,  0.0000,  0.0000)
  35 Li     5.255920    1.005733    9.037749    ( 0.0000,  0.0000,  0.0000)
  36 N      1.753389    5.061910    1.929076    ( 0.0000,  0.0000,  0.0000)
  37 N      0.000000    2.024989    1.929076    ( 0.0000,  0.0000,  0.0000)
  38 N      3.506756    2.024989    1.929076    ( 0.0000,  0.0000,  0.0000)
  39 N      5.260124    5.061910    1.929076    ( 0.0000,  0.0000,  0.0000)
  40 N      1.715706    5.093668    5.951326    ( 0.0000,  0.0000,  0.0000)
  41 N     -0.017721    2.061735    5.848592    ( 0.0000,  0.0000,  0.0000)
  42 N      3.477670    2.074087    5.917111    ( 0.0000,  0.0000,  0.0000)
  43 N      5.240561    5.081495    5.974353    ( 0.0000,  0.0000,  0.0000)
  44 N      1.685965    4.957891    9.921264    ( 0.0000,  0.0000,  0.0000)
  45 N     -0.085741    1.974539    9.764876    ( 0.0000,  0.0000,  0.0000)
  46 N      3.538035    1.898424    9.867844    ( 0.0000,  0.0000,  0.0000)
  47 N      5.174468    5.129817    9.922598    ( 0.0000,  0.0000,  0.0000)
  48 Li     4.850592    0.749101   11.149895    ( 0.0000,  0.0000,  0.0000)

Unit cell:
           periodic     x           y           z      points  spacing
  1. axis:    yes    7.013470    0.000000    0.000000    40     0.1753
  2. axis:    yes    0.000000    6.073843    0.000000    32     0.1898
  3. axis:    yes    0.000000    0.000000   29.936001   160     0.1871

  Lengths:   7.013470   6.073843  29.936001
  Angles:   90.000000  90.000000  90.000000

Effective grid spacing dv^(1/3) = 0.1840

                     log10-error:    total        iterations:
           time      wfs    density  energy       fermi  poisson
iter:   1  15:33:38  -4.45         -155.638366    2             
iter:   2  15:33:49  -5.41  -3.06  -155.640425    3             
iter:   3  15:34:00  -6.24  -2.98  -155.638792    3             
iter:   4  15:34:12  -6.14  -3.51  -155.638643    2             
iter:   5  15:34:23  -6.89  -3.63  -155.638830    2             
iter:   6  15:34:34  -6.65  -3.74  -155.638641    2             
iter:   7  15:34:46  -7.13  -3.84  -155.638868    2             
iter:   8  15:34:57  -7.67  -3.85  -155.638758    2             
iter:   9  15:35:09  -7.43  -4.30  -155.638750    2             

Converged after 9 iterations.

Dipole moment: (6.997744, -2.503067, 5.181029) |e|*Ang

Energy contributions relative to reference atoms: (reference = -25283.807400)

Kinetic:       +162.648556
Potential:     -119.090156
External:        +0.000000
XC:            -198.147108
Entropy (-ST):   -0.022002
Local:           -1.039041
--------------------------
Free energy:   -155.649751
Extrapolated:  -155.638750

Non-local vdW-DF-cx correlation energy: 15.145696
Semilocal GGA_X_LV_RPW86+LDA_C_PW energy: -1085.917373
(Not including atomic contributions)
Fermi level: -0.97987

Showing only first 2 kpts
 Kpt  Band  Eigenvalues  Occupancy
  0    46     -1.39393    0.13333
  0    47     -0.81994    0.00064
  0    48     -0.77375    0.00014
  0    49     -0.42829    0.00000

  1    46     -1.48013    0.13333
  1    47     -1.16578    0.13306
  1    48     -0.90979    0.01176
  1    49     -0.39180    0.00000


No gap

Forces in eV/Ang:
  0 Li    0.00073   -0.00077   -0.12850
  1 Li    0.00036   -0.00010   -0.13308
  2 Li    0.00050   -0.00046   -0.13158
  3 Li    0.00016   -0.00038   -0.12851
  4 Li   -0.00848    0.00930    0.05391
  5 Li   -0.00567   -0.00555    0.04894
  6 Li   -0.00316    0.01034    0.02679
  7 Li   -0.00053    0.00738    0.03631
  8 Li   -0.00238    0.00617    0.00409
  9 Li    0.00063    0.00694    0.03693
 10 Li   -0.00819    0.00177    0.00508
 11 Li   -0.00523   -0.00207   -0.00159
 12 Li   -0.00243   -0.02497    0.01808
 13 Li    0.00821    0.01824   -0.01741
 14 Li   -0.00449    0.02934   -0.00084
 15 Li    0.01138   -0.01886    0.02296
 16 Li    0.00230   -0.01136   -0.03980
 17 Li    0.01762    0.00394    0.00380
 18 Li   -0.00290   -0.00531   -0.02026
 19 Li   -0.01369    0.00202   -0.03026
 20 Li   -0.00286    0.00844    0.02322
 21 Li    0.00011   -0.01725    0.00350
 22 Li    0.00118   -0.00872   -0.00710
 23 Li    0.01738   -0.00448    0.03548
 24 Li    0.01507   -0.01573    0.00961
 25 Li   -0.00801    0.01253    0.00032
 26 Li   -0.03398   -0.00365    0.01650
 27 Li    0.01910   -0.03726   -0.02739
 28 Li    0.02671   -0.00472    0.00512
 29 Li   -0.02228   -0.00442   -0.02050
 30 Li    0.01309    0.00562   -0.01346
 31 Li    0.01194   -0.00967   -0.02410
 32 Li    0.00531   -0.01237    0.01956
 33 Li   -0.00883    0.00136    0.00999
 34 Li   -0.02409   -0.01540    0.01824
 35 Li    0.00424    0.02476   -0.01515
 36 N     0.01675    0.03644    0.07470
 37 N    -0.01044    0.00537   -0.07635
 38 N     0.00504    0.01318    0.04511
 39 N    -0.02325    0.02661    0.11514
 40 N     0.02610    0.03565   -0.04591
 41 N     0.00099   -0.02710   -0.01073
 42 N     0.00374   -0.02641   -0.00464
 43 N    -0.01983    0.03679    0.00835
 44 N     0.01785    0.02474    0.03775
 45 N    -0.01699   -0.00533    0.02844
 46 N    -0.00976    0.01592   -0.00741
 47 N     0.00936    0.01992    0.01285
 48 Li    0.00216    0.01457   -0.01279

System changes: positions 

Initializing position-dependent things.

Density initialized from wave functions
     .----------------.  
    /|                |  
   / |                |  
  /  |                |  
 *   |                |  
 |   |                |  
 |   |                |  
 |   |                |  
 |   |                |  
 |   |                |  
 |   |                |  
 |   |                |  
 |   |                |  
 |   |                |  
 |   |                |  
 |   |                |  
 |   |                |  
 |   |                |  
 |   |                |  
 |   |                |  
 |   |                |  
 |   |                |  
 |   |                |  
 |   |                |  
 |   |                |  
 |  Li  N   Lii  N    Li 
 |   |                |  
 |   |Lii    Li Li    |  
 |   |  Li N     LiN  |  
 |   |        Li      |  
 | Li|   N Li    N    |  
 |   |      Li  Li   Li  
 |   | Li  N       N  |  
 |   |Li Li   Li LLi  |  
 |   |                |  
 |   |   N Li    N Li |  
 |  Li      Li        |  
 |N  .-Li--N----Li----.  
 |  / Li Li   Li Li  /   
 Li/      Li        /    
 |/i       Li      /     
 *----------------*      

Positions:
   0 Li     1.753389    5.061850    0.000000    ( 0.0000,  0.0000,  0.0000)
   1 Li     0.000000    2.024928    0.000000    ( 0.0000,  0.0000,  0.0000)
   2 Li     3.506756    2.024928    0.000000    ( 0.0000,  0.0000,  0.0000)
   3 Li     5.260124    5.061850    0.000000    ( 0.0000,  0.0000,  0.0000)
   4 Li     1.753389    3.037256    1.946139    ( 0.0000,  0.0000,  0.0000)
   5 Li     0.000000    0.000334    1.946139    ( 0.0000,  0.0000,  0.0000)
   6 Li     3.506756    0.000334    1.946139    ( 0.0000,  0.0000,  0.0000)
   7 Li     5.260124    3.037256    1.946139    ( 0.0000,  0.0000,  0.0000)
   8 Li     1.753367    1.012631    1.946139    ( 0.0000,  0.0000,  0.0000)
   9 Li     0.000000    4.049553    1.946139    ( 0.0000,  0.0000,  0.0000)
  10 Li     3.506735    4.049553    1.946139    ( 0.0000,  0.0000,  0.0000)
  11 Li     5.260103    1.012631    1.946139    ( 0.0000,  0.0000,  0.0000)
  12 Li     1.757852    5.087985    3.958879    ( 0.0000,  0.0000,  0.0000)
  13 Li    -0.019594    2.025632    3.919272    ( 0.0000,  0.0000,  0.0000)
  14 Li     3.498393    2.048719    3.945891    ( 0.0000,  0.0000,  0.0000)
  15 Li     5.224947    5.071190    3.969317    ( 0.0000,  0.0000,  0.0000)
  16 Li     1.728672    3.072000    6.025727    ( 0.0000,  0.0000,  0.0000)
  17 Li    -0.040711    0.057418    6.230638    ( 0.0000,  0.0000,  0.0000)
  18 Li     3.484237    0.052616    6.417240    ( 0.0000,  0.0000,  0.0000)
  19 Li     5.244180    3.027611    6.123226    ( 0.0000,  0.0000,  0.0000)
  20 Li     1.753204    1.008451    5.650669    ( 0.0000,  0.0000,  0.0000)
  21 Li    -0.033204    4.105604    5.676189    ( 0.0000,  0.0000,  0.0000)
  22 Li     3.490592    4.128964    5.744926    ( 0.0000,  0.0000,  0.0000)
  23 Li     5.204961    1.007431    5.648005    ( 0.0000,  0.0000,  0.0000)
  24 Li     1.552290    5.025774    7.959213    ( 0.0000,  0.0000,  0.0000)
  25 Li     0.143392    2.123605    7.843051    ( 0.0000,  0.0000,  0.0000)
  26 Li     3.363943    2.274681    7.917492    ( 0.0000,  0.0000,  0.0000)
  27 Li     5.343271    4.782002    7.977396    ( 0.0000,  0.0000,  0.0000)
  28 Li     1.728351    2.958618    9.660402    ( 0.0000,  0.0000,  0.0000)
  29 Li    -0.013229   -0.040563    9.839877    ( 0.0000,  0.0000,  0.0000)
  30 Li     3.354890   -0.129742    9.491145    ( 0.0000,  0.0000,  0.0000)
  31 Li     5.203524    3.054458    9.856374    ( 0.0000,  0.0000,  0.0000)
  32 Li     1.774973    0.947779   10.583006    ( 0.0000,  0.0000,  0.0000)
  33 Li     0.013428    3.975844   10.594760    ( 0.0000,  0.0000,  0.0000)
  34 Li     3.404686    4.051311   10.652577    ( 0.0000,  0.0000,  0.0000)
  35 Li     5.254160    1.007449    9.036773    ( 0.0000,  0.0000,  0.0000)
  36 N      1.753389    5.061910    1.929076    ( 0.0000,  0.0000,  0.0000)
  37 N      0.000000    2.024989    1.929076    ( 0.0000,  0.0000,  0.0000)
  38 N      3.506756    2.024989    1.929076    ( 0.0000,  0.0000,  0.0000)
  39 N      5.260124    5.061910    1.929076    ( 0.0000,  0.0000,  0.0000)
  40 N      1.717765    5.096772    5.948765    ( 0.0000,  0.0000,  0.0000)
  41 N     -0.017585    2.057182    5.848356    ( 0.0000,  0.0000,  0.0000)
  42 N      3.477843    2.070032    5.916897    ( 0.0000,  0.0000,  0.0000)
  43 N      5.239468    5.084642    5.976149    ( 0.0000,  0.0000,  0.0000)
  44 N      1.688685    4.959086    9.922939    ( 0.0000,  0.0000,  0.0000)
  45 N     -0.088537    1.972105    9.770380    ( 0.0000,  0.0000,  0.0000)
  46 N      3.535597    1.902683    9.866887    ( 0.0000,  0.0000,  0.0000)
  47 N      5.175246    5.130706    9.920187    ( 0.0000,  0.0000,  0.0000)
  48 Li     4.854908    0.756333   11.147631    ( 0.0000,  0.0000,  0.0000)

Unit cell:
           periodic     x           y           z      points  spacing
  1. axis:    yes    7.013470    0.000000    0.000000    40     0.1753
  2. axis:    yes    0.000000    6.073843    0.000000    32     0.1898
  3. axis:    yes    0.000000    0.000000   29.936001   160     0.1871

  Lengths:   7.013470   6.073843  29.936001
  Angles:   90.000000  90.000000  90.000000

Effective grid spacing dv^(1/3) = 0.1840

                     log10-error:    total        iterations:
           time      wfs    density  energy       fermi  poisson
iter:   1  15:35:32  -3.45         -155.641206    2             
iter:   2  15:35:43  -4.60  -2.95  -155.640904    2             
iter:   3  15:35:55  -5.39  -2.97  -155.641316    2             
iter:   4  15:36:06  -5.09  -2.99  -155.640710    2             
iter:   5  15:36:17  -6.23  -3.32  -155.640666    2             
iter:   6  15:36:29  -5.72  -3.37  -155.640581    2             
iter:   7  15:36:40  -6.09  -3.65  -155.640603    2             
iter:   8  15:36:52  -7.45  -3.61  -155.640535    2             
iter:   9  15:37:03  -7.49  -3.64  -155.640590    2             
iter:  10  15:37:15  -6.37  -3.70  -155.640534    2             
iter:  11  15:37:26  -7.86  -4.02  -155.640539    2             

Converged after 11 iterations.

Dipole moment: (7.139068, -2.474536, 5.188840) |e|*Ang

Energy contributions relative to reference atoms: (reference = -25283.807400)

Kinetic:       +162.577671
Potential:     -119.035732
External:        +0.000000
XC:            -198.132050
Entropy (-ST):   -0.021962
Local:           -1.039447
--------------------------
Free energy:   -155.651520
Extrapolated:  -155.640539

Non-local vdW-DF-cx correlation energy: 15.145533
Semilocal GGA_X_LV_RPW86+LDA_C_PW energy: -1085.906568
(Not including atomic contributions)
Fermi level: -0.98035

Showing only first 2 kpts
 Kpt  Band  Eigenvalues  Occupancy
  0    46     -1.39482    0.13333
  0    47     -0.81910    0.00061
  0    48     -0.77510    0.00014
  0    49     -0.42742    0.00000

  1    46     -1.47905    0.13333
  1    47     -1.16620    0.13306
  1    48     -0.91059    0.01187
  1    49     -0.39163    0.00000


No gap

Forces in eV/Ang:
  0 Li    0.00071   -0.00068   -0.12793
  1 Li    0.00035   -0.00012   -0.13230
  2 Li    0.00048   -0.00056   -0.13136
  3 Li    0.00015   -0.00034   -0.12757
  4 Li   -0.00947    0.00937    0.05293
  5 Li   -0.00561   -0.00621    0.05121
  6 Li   -0.00303    0.01054    0.02711
  7 Li    0.00062    0.00768    0.03718
  8 Li   -0.00270    0.00550    0.00546
  9 Li    0.00023    0.00704    0.03925
 10 Li   -0.00762    0.00226    0.00331
 11 Li   -0.00476   -0.00216    0.00006
 12 Li   -0.00891   -0.01430    0.00849
 13 Li    0.00717    0.01312   -0.02382
 14 Li   -0.00283    0.01683    0.00805
 15 Li    0.01715   -0.01251    0.00973
 16 Li   -0.01055   -0.00678   -0.04084
 17 Li    0.01398    0.00728   -0.00517
 18 Li   -0.00380   -0.00457   -0.01913
 19 Li    0.00040   -0.00091   -0.02740
 20 Li   -0.00884    0.01254    0.00784
 21 Li   -0.00032   -0.01710    0.00215
 22 Li    0.00222    0.00230    0.00074
 23 Li    0.02069    0.00059    0.02606
 24 Li    0.01524   -0.00756   -0.00005
 25 Li   -0.00620    0.01033   -0.01279
 26 Li   -0.02160   -0.01010    0.00819
 27 Li    0.01401   -0.02315   -0.00910
 28 Li    0.00425   -0.00016    0.01183
 29 Li   -0.01621   -0.00483   -0.02182
 30 Li    0.00406   -0.00001   -0.01632
 31 Li   -0.00175    0.01493   -0.01170
 32 Li   -0.00070   -0.00704    0.01859
 33 Li   -0.00141   -0.01189    0.00560
 34 Li   -0.01544    0.00371    0.01831
 35 Li   -0.00031    0.00818   -0.02870
 36 N     0.01964    0.03445    0.07485
 37 N    -0.00968    0.00579   -0.07430
 38 N     0.00441    0.01531    0.04281
 39 N    -0.02613    0.02605    0.12251
 40 N     0.01550   -0.03682   -0.01152
 41 N     0.00189    0.03034    0.02490
 42 N     0.00163    0.02139   -0.00306
 43 N    -0.00562   -0.02563   -0.00159
 44 N    -0.00388    0.00494    0.03220
 45 N    -0.00410    0.01284    0.01004
 46 N     0.01387   -0.00986    0.00115
 47 N     0.01881    0.01487    0.01177
 48 Li    0.01121    0.00862   -0.00833

Timing:                                      incl.     excl.
-------------------------------------------------------------------
Density initialized from wave functions:   163.419   163.416   1.1% |
 Symmetrize density:                         0.003     0.003   0.0% |
Forces:                                    692.759   692.759   4.7% |-|
Hamiltonian:                               100.234     0.387   0.0% |
 Atomic:                                     7.676     4.266   0.0% |
  XC Correction:                             3.410     3.410   0.0% |
 Calculate atomic Hamiltonians:             62.118    62.118   0.4% |
 Communicate:                                0.015     0.015   0.0% |
 Initialize Hamiltonian:                     0.001     0.001   0.0% |
 Poisson:                                    0.229     0.229   0.0% |
 XC 3D grid:                                29.809     9.433   0.1% |
  van der Waals:                            20.376     0.389   0.0% |
   libvdwxc nonlocal:                       13.860    13.860   0.1% |
   redistribute:                             3.474     3.474   0.0% |
   semilocal:                                2.653     2.653   0.0% |
LCAO initialization:                         6.825     0.083   0.0% |
 LCAO eigensolver:                           1.840     0.000   0.0% |
  Calculate projections:                     0.007     0.007   0.0% |
  DenseAtomicCorrection:                     0.012     0.012   0.0% |
  Distribute overlap matrix:                 0.001     0.001   0.0% |
  Orbital Layouts:                           0.058     0.058   0.0% |
  Potential matrix:                          1.759     1.759   0.0% |
  Sum over cells:                            0.003     0.003   0.0% |
 LCAO to grid:                               3.410     3.410   0.0% |
 Set positions (LCAO WFS):                   1.491     0.396   0.0% |
  Basic WFS set positions:                   0.002     0.002   0.0% |
  Basis functions set positions:             0.000     0.000   0.0% |
  P tci:                                     0.598     0.598   0.0% |
  ST tci:                                    0.215     0.215   0.0% |
  mktci:                                     0.279     0.279   0.0% |
PWDescriptor:                                0.352     0.352   0.0% |
Redistribute:                                0.197     0.197   0.0% |
SCF-cycle:                               13596.046  5809.308  39.4% |---------------|
 Davidson:                                5490.137  2856.031  19.4% |-------|
  Apply H:                                 199.765   193.514   1.3% ||
   HMM T:                                    6.250     6.250   0.0% |
  Subspace diag:                           602.454     0.249   0.0% |
   calc_h_matrix:                          333.876   130.713   0.9% |
    Apply H:                               203.163   195.558   1.3% ||
     HMM T:                                  7.605     7.605   0.1% |
   diagonalize:                              2.692     2.692   0.0% |
   rotate_psi:                             265.637   265.637   1.8% ||
  calc. matrices:                         1276.267   878.435   6.0% |-|
   Apply H:                                397.831   385.343   2.6% ||
    HMM T:                                  12.488    12.488   0.1% |
  diagonalize:                              26.054    26.054   0.2% |
  rotate_psi:                              529.567   529.567   3.6% ||
 Density:                                 1020.733     0.026   0.0% |
  Atomic density matrices:                   7.798     7.798   0.1% |
  Mix:                                     759.972   759.972   5.2% |-|
  Multipole moments:                         1.147     1.147   0.0% |
  Pseudo density:                          251.789   251.751   1.7% ||
   Symmetrize density:                       0.039     0.039   0.0% |
 Hamiltonian:                             1210.956     4.663   0.0% |
  Atomic:                                  123.934    83.216   0.6% |
   XC Correction:                           40.717    40.717   0.3% |
  Calculate atomic Hamiltonians:           697.972   697.972   4.7% |-|
  Communicate:                               2.950     2.950   0.0% |
  Poisson:                                   2.620     2.620   0.0% |
  XC 3D grid:                              378.818   135.773   0.9% |
   van der Waals:                          243.045     4.771   0.0% |
    libvdwxc nonlocal:                     164.753   164.753   1.1% |
    redistribute:                           42.191    42.191   0.3% |
    semilocal:                              31.329    31.329   0.2% |
 Orthonormalize:                            64.913     0.022   0.0% |
  calc_s_matrix:                             4.705     4.705   0.0% |
  inverse-cholesky:                          0.103     0.103   0.0% |
  projections:                              54.810    54.810   0.4% |
  rotate_psi_s:                              5.272     5.272   0.0% |
Set symmetry:                                0.002     0.002   0.0% |
Other:                                     184.154   184.154   1.2% |
-------------------------------------------------------------------
Total:                                             14743.990 100.0%

Date: Mon Sep  6 15:37:34 2021
