
  ___ ___ ___ _ _ _  
 |   |   |_  | | | | 
 | | | | | . | | | | 
 |__ |  _|___|_____|  20.1.0
 |___|_|             

User:   jngwng01@n716004
Date:   Mon Sep  6 10:10:08 2021
Arch:   x86_64
Pid:    23128
Python: 3.8.5
gpaw:   /uls/7/gpaw-20.1.0/lib/python3.8/site-packages/gpaw-20.1.0-py3.8-linux-x86_64.egg/gpaw
_gpaw:  /uls/7/gpaw-20.1.0/lib/python3.8/site-packages/gpaw-20.1.0-py3.8-linux-x86_64.egg/
        _gpaw.cpython-38-x86_64-linux-gnu.so
ase:    /uls/7/gpaw-20.1.0/lib/python3.8/site-packages/ase-3.20.1-py3.8.egg/ase (version 3.20.1)
numpy:  /uls/7/gpaw-20.1.0/lib/python3.8/site-packages/numpy (version 1.19.2)
scipy:  /uls/7/gpaw-20.1.0/lib/python3.8/site-packages/scipy-1.5.2-py3.8-linux-x86_64.egg/scipy (version 1.5.2)
libxc:  4.3.4
units:  Angstrom and eV
cores: 32
OMP_NUM_THREADS: 1

Input parameters:
  convergence: {eigenstates: 1e-08}
  kpts: [5 6 1]
  mode: {ecut: 500.0,
         gammacentered: False,
         name: pw}
  occupations: {name: fermi-dirac,
                width: 0.03}
  random: True
  xc: {backend: libvdwxc,
       libvdwxc_name: vdW-DF-cx,
       name: vdW-DF-cx,
       semilocal_xc: GGA_X_LV_RPW86+LDA_C_PW,
       setup_name: PBE,
       vdwcoef: 1.0}

System changes: positions, numbers, cell, pbc, initial_charges, initial_magmoms 

Initialize ...

Li-setup:
  name: Lithium
  id: 830b4218f175192f93f959cfc0aad614
  Z: 3
  valence: 1
  core: 2
  charge: 0.0
  file: /uls/7/gpaw-20.1.0/setups/gpaw-setups-0.9.20000/Li.PBE.gz
  compensation charges: gauss, rc=0.33, lmax=2
  cutoffs: 1.91(filt), 2.55(core),
  valence states:
                energy  radius
    2s(1.00)    -2.874   1.058
    2p(0.00)    -1.090   1.058
    *s          24.337   1.058

  Using partial waves for Li as LCAO basis

N-setup:
  name: Nitrogen
  id: f7500608b86eaa90eef8b1d9a670dc53
  Z: 7
  valence: 5
  core: 2
  charge: 0.0
  file: /uls/7/gpaw-20.1.0/setups/gpaw-setups-0.9.20000/N.PBE.gz
  compensation charges: gauss, rc=0.18, lmax=2
  cutoffs: 1.11(filt), 0.96(core),
  valence states:
                energy  radius
    2s(2.00)   -18.583   0.603
    2p(3.00)    -7.089   0.529
    *s           8.629   0.603
    *p          20.123   0.529
    *d           0.000   0.577

  Using partial waves for N as LCAO basis

Reference energy: -25283.807400

Spin-paired calculation

Occupation numbers:
  Fermi-Dirac: width=0.0300 eV

Convergence criteria:
  Maximum total energy change: 0.0005 eV / electron
  Maximum integral of absolute density change: 0.0001 electrons
  Maximum integral of absolute eigenstate change: 1e-08 eV^2
  Maximum number of iterations: 333

Symmetries present (total): 1

  ( 1  0  0)
  ( 0  1  0)
  ( 0  0  1)

30 k-points: 5 x 6 x 1 Monkhorst-Pack grid
15 k-points in the irreducible part of the Brillouin zone
       k-points in crystal coordinates                weights
   0:     0.00000000    0.08333333    0.00000000          2/30
   1:     0.00000000    0.25000000    0.00000000          2/30
   2:     0.00000000    0.41666667    0.00000000          2/30
   3:     0.20000000   -0.41666667    0.00000000          2/30
   4:     0.20000000   -0.25000000    0.00000000          2/30
   5:     0.20000000   -0.08333333    0.00000000          2/30
   6:     0.20000000    0.08333333    0.00000000          2/30
   7:     0.20000000    0.25000000    0.00000000          2/30
   8:     0.20000000    0.41666667    0.00000000          2/30
   9:     0.40000000   -0.41666667    0.00000000          2/30
          ...
  14:     0.40000000    0.41666667    0.00000000          2/30

Wave functions: Plane wave expansion
  Cutoff energy: 500.000 eV
  Number of coefficients (min, max): 32335, 32478
  Pulay-stress correction: 0.000000 eV/Ang^3 (de/decut=0.000000)
  Using FFTW library
  ScaLapack parameters: grid=1x1, blocksize=None
  Wavefunction extrapolation:
    Improved wavefunction reuse through dual PAW basis 

Eigensolver
   Davidson(niter=2, smin=None, normalize=True) 

Densities:
  Coarse grid: 40*32*160 grid
  Fine grid: 80*64*320 grid
  Total Charge: 0.000000 

Density mixing:
  Method: separate
  Backend: pulay
  Linear mixing parameter: 0.05
  Mixing with 5 old densities
  Damping of long wave oscillations: 50 

Hamiltonian:
  XC and Coulomb potentials evaluated on a 80*64*320 grid
  Using the vdW-DF-cx Exchange-Correlation functional
 

XC parameters: vdW-DF-cx with libvdwxc
  Mode: mpi with 32 cores
  Semilocal: GGA_X_LV_RPW86+LDA_C_PW with 2 nearest neighbor stencil
  Local blocksize: 3 x 64 x 320
  PAW datasets: PBE

Memory estimate:
  Process memory now: 214.27 MiB
  Calculator: 106.40 MiB
    Density: 24.81 MiB
      Arrays: 10.16 MiB
      Localized functions: 10.74 MiB
      Mixer: 3.91 MiB
    Hamiltonian: 6.90 MiB
      Arrays: 6.64 MiB
      XC: 0.00 MiB
      Poisson: 0.00 MiB
      vbar: 0.26 MiB
    Wavefunctions: 74.69 MiB
      Arrays psit_nG: 31.22 MiB
      Eigensolver: 34.31 MiB
      Projections: 0.08 MiB
      Projectors: 1.05 MiB
      PW-descriptor: 8.03 MiB

Total number of cores used: 32
Parallelization over k-points: 8
Domain decomposition: 1 x 1 x 4
                      2 x 2 x 8 (xc only)

Number of atoms: 49
Number of atomic orbitals: 196
Number of bands in calculation: 63
Number of valence electrons: 97
Bands to converge: occupied

... initialized

Initializing position-dependent things.

Density initialized from atomic densities
Creating initial wave functions:
  63 bands from LCAO basis set

     .----------------.  
    /|                |  
   / |                |  
  /  |                |  
 *   |                |  
 |   |                |  
 |   |                |  
 |   |                |  
 |   |                |  
 |   |                |  
 |   |                |  
 |   |                |  
 |   |                |  
 |   |                |  
 |   |                |  
 |   |                |  
 |   |                |  
 |   |                |  
 |   |                |  
 |   |                |  
 |   |                |  
 |   |                |  
 |   |                |  
 |   |                |  
 |   |                |  
 |   |   N Li         |  
 |   |      Li   N   Li  
 |   | Li  N    Li    |  
 |N  |LiLi     Li Li  |  
 |   |    Li          |  
 |Li |   N Li    N    |  
 |  Li      Li        |  
 |N  | Li  N    Li    |  
 |   |Li Li   Li Li   |  
 Li  |    Li          |  
 |Li |   N Li    N    |  
 |  Li      Li        |  
 |N  .-Li--N----Li----.  
 |  / Li Li   Li Li  /   
 Li/      Li        /    
 |/i       Li      /     
 *----------------*      

Positions:
   0 Li     1.753389    5.061850    0.000000    ( 0.0000,  0.0000,  0.0000)
   1 Li     0.000000    2.024928    0.000000    ( 0.0000,  0.0000,  0.0000)
   2 Li     3.506756    2.024928    0.000000    ( 0.0000,  0.0000,  0.0000)
   3 Li     5.260124    5.061850    0.000000    ( 0.0000,  0.0000,  0.0000)
   4 Li     1.753389    3.037256    1.946139    ( 0.0000,  0.0000,  0.0000)
   5 Li     0.000000    0.000334    1.946139    ( 0.0000,  0.0000,  0.0000)
   6 Li     3.506756    0.000334    1.946139    ( 0.0000,  0.0000,  0.0000)
   7 Li     5.260124    3.037256    1.946139    ( 0.0000,  0.0000,  0.0000)
   8 Li     1.753367    1.012631    1.946139    ( 0.0000,  0.0000,  0.0000)
   9 Li     0.000000    4.049553    1.946139    ( 0.0000,  0.0000,  0.0000)
  10 Li     3.506735    4.049553    1.946139    ( 0.0000,  0.0000,  0.0000)
  11 Li     5.260103    1.012631    1.946139    ( 0.0000,  0.0000,  0.0000)
  12 Li     1.753389    5.061850    3.920419    ( 0.0000,  0.0000,  0.0000)
  13 Li     0.000000    2.024928    3.920419    ( 0.0000,  0.0000,  0.0000)
  14 Li     3.506756    2.024928    3.920419    ( 0.0000,  0.0000,  0.0000)
  15 Li     5.260124    5.061850    3.920419    ( 0.0000,  0.0000,  0.0000)
  16 Li     1.754854    3.074098    5.928872    ( 0.0000,  0.0000,  0.0000)
  17 Li     0.000096    0.046804    5.795323    ( 0.0000,  0.0000,  0.0000)
  18 Li     3.506909    0.030024    5.918665    ( 0.0000,  0.0000,  0.0000)
  19 Li     5.258775    3.072944    5.935461    ( 0.0000,  0.0000,  0.0000)
  20 Li     1.755596    1.047076    5.940909    ( 0.0000,  0.0000,  0.0000)
  21 Li     0.000118    4.073065    5.795055    ( 0.0000,  0.0000,  0.0000)
  22 Li     3.506900    4.095902    5.897982    ( 0.0000,  0.0000,  0.0000)
  23 Li     5.258082    1.048117    5.948094    ( 0.0000,  0.0000,  0.0000)
  24 Li     1.567654    5.090528    7.889155    ( 0.0000,  0.0000,  0.0000)
  25 Li     0.010600    2.062173    7.853956    ( 0.0000,  0.0000,  0.0000)
  26 Li     3.495292    2.107752    7.906076    ( 0.0000,  0.0000,  0.0000)
  27 Li     5.445877    5.089624    7.871004    ( 0.0000,  0.0000,  0.0000)
  28 Li     1.720944    3.102284    9.805643    ( 0.0000,  0.0000,  0.0000)
  29 Li    -0.004065    0.078970   10.369092    ( 0.0000,  0.0000,  0.0000)
  30 Li     3.508740    0.045166    9.798798    ( 0.0000,  0.0000,  0.0000)
  31 Li     5.295917    3.102408    9.776079    ( 0.0000,  0.0000,  0.0000)
  32 Li     1.706465    1.041178    9.769145    ( 0.0000,  0.0000,  0.0000)
  33 Li    -0.003036    4.086244   10.271846    ( 0.0000,  0.0000,  0.0000)
  34 Li     3.509698    4.110878    9.952280    ( 0.0000,  0.0000,  0.0000)
  35 Li     5.311003    1.040723    9.737884    ( 0.0000,  0.0000,  0.0000)
  36 N      1.753389    5.061910    1.929076    ( 0.0000,  0.0000,  0.0000)
  37 N      0.000000    2.024989    1.929076    ( 0.0000,  0.0000,  0.0000)
  38 N      3.506756    2.024989    1.929076    ( 0.0000,  0.0000,  0.0000)
  39 N      5.260124    5.061910    1.929076    ( 0.0000,  0.0000,  0.0000)
  40 N      1.745126    5.098227    5.857641    ( 0.0000,  0.0000,  0.0000)
  41 N      0.000715    2.061095    5.858802    ( 0.0000,  0.0000,  0.0000)
  42 N      3.506062    2.064285    5.915569    ( 0.0000,  0.0000,  0.0000)
  43 N      5.268253    5.098244    5.853143    ( 0.0000,  0.0000,  0.0000)
  44 N      1.735404    5.114596    9.842556    ( 0.0000,  0.0000,  0.0000)
  45 N      0.001984    2.077728    9.763884    ( 0.0000,  0.0000,  0.0000)
  46 N      3.508263    2.075317    9.868146    ( 0.0000,  0.0000,  0.0000)
  47 N      5.281981    5.114345    9.808175    ( 0.0000,  0.0000,  0.0000)
  48 Li     3.520849    1.978331   11.751465    ( 0.0000,  0.0000,  0.0000)

Unit cell:
           periodic     x           y           z      points  spacing
  1. axis:    yes    7.013470    0.000000    0.000000    40     0.1753
  2. axis:    yes    0.000000    6.073843    0.000000    32     0.1898
  3. axis:    yes    0.000000    0.000000   29.936001   160     0.1871

  Lengths:   7.013470   6.073843  29.936001
  Angles:   90.000000  90.000000  90.000000

Effective grid spacing dv^(1/3) = 0.1840

                     log10-error:    total        iterations:
           time      wfs    density  energy       fermi  poisson
iter:   1  10:10:38                -187.072130    3             
iter:   2  10:10:49  -0.99  -0.50  -176.900111    31            
iter:   3  10:11:00  -0.39  -0.56  -179.697569    38            
iter:   4  10:11:11  -1.95  -0.60  -166.452091    32            
iter:   5  10:11:22  -2.85  -0.67  -165.100971    4             
iter:   6  10:11:34  -2.28  -0.69  -158.269067    33            
iter:   7  10:11:45  -1.74  -0.84  -156.850788    31            
iter:   8  10:11:56  -1.69  -0.91  -155.950093    4             
iter:   9  10:12:07  -2.63  -0.97  -155.169992    3             
iter:  10  10:12:18  -1.70  -1.10  -154.892319    34            
iter:  11  10:12:30  -2.68  -1.67  -154.865298    4             
iter:  12  10:12:41  -3.08  -1.68  -154.842504    2             
iter:  13  10:12:52  -2.25  -1.69  -154.825499    28            
iter:  14  10:13:03  -3.44  -1.74  -154.825510    3             
iter:  15  10:13:15  -3.05  -1.75  -154.795211    5             
iter:  16  10:13:26  -4.03  -1.90  -154.786654    3             
iter:  17  10:13:37  -3.88  -1.91  -154.768827    4             
iter:  18  10:13:48  -2.63  -1.94  -154.812545    4             
iter:  19  10:14:00  -3.07  -1.90  -154.791695    5             
iter:  20  10:14:11  -4.37  -2.05  -154.776088    4             
iter:  21  10:14:22  -4.93  -2.29  -154.774272    3             
iter:  22  10:14:33  -4.24  -2.30  -154.772127    3             
iter:  23  10:14:44  -4.70  -2.35  -154.775386    3             
iter:  24  10:14:56  -4.74  -2.59  -154.774709    3             
iter:  25  10:15:07  -4.87  -2.96  -154.773474    3             
iter:  26  10:15:18  -5.90  -3.11  -154.773712    3             
iter:  27  10:15:29  -5.23  -3.21  -154.772855    2             
iter:  28  10:15:41  -5.65  -2.95  -154.773804    3             
iter:  29  10:15:52  -6.44  -3.30  -154.773568    2             
iter:  30  10:16:03  -6.76  -3.46  -154.773554    2             
iter:  31  10:16:14  -7.06  -3.54  -154.773590    2             
iter:  32  10:16:25  -6.20  -3.60  -154.773491    2             
iter:  33  10:16:37  -7.01  -3.69  -154.773566    2             
iter:  34  10:16:48  -7.31  -3.72  -154.773508    2             
iter:  35  10:16:59  -6.93  -3.93  -154.773590    2             
iter:  36  10:17:10  -7.34  -4.11  -154.773549    2             
iter:  37  10:17:21  -7.93  -4.30  -154.773547    2             
iter:  38  10:17:33  -8.14  -4.32  -154.773548    2             

Converged after 38 iterations.

Dipole moment: (-0.228456, -2.625510, 5.711201) |e|*Ang

Energy contributions relative to reference atoms: (reference = -25283.807400)

Kinetic:       +178.971981
Potential:     -130.255897
External:        +0.000000
XC:            -202.432488
Entropy (-ST):   -0.021846
Local:           -1.046220
--------------------------
Free energy:   -154.784471
Extrapolated:  -154.773548

Non-local vdW-DF-cx correlation energy: 15.299713
Semilocal GGA_X_LV_RPW86+LDA_C_PW energy: -1089.028063
(Not including atomic contributions)
Fermi level: -0.94364

Showing only first 2 kpts
 Kpt  Band  Eigenvalues  Occupancy
  0    46     -1.24172    0.13333
  0    47     -0.85418    0.00643
  0    48     -0.74317    0.00017
  0    49     -0.26707    0.00000

  1    46     -1.31031    0.13333
  1    47     -1.16057    0.13324
  1    48     -0.88095    0.01468
  1    49     -0.30277    0.00000


No gap

Forces in eV/Ang:
  0 Li   -0.00032    0.00005   -0.10434
  1 Li    0.00005   -0.00003   -0.10363
  2 Li   -0.00004    0.00002   -0.10415
  3 Li    0.00029    0.00004   -0.10400
  4 Li   -0.00367    0.00370    0.02948
  5 Li   -0.00028   -0.00016    0.03027
  6 Li    0.00028   -0.00139    0.02833
  7 Li    0.00341    0.00435    0.02976
  8 Li   -0.00358   -0.00391    0.03017
  9 Li   -0.00018   -0.00055    0.03008
 10 Li    0.00054    0.00061    0.02718
 11 Li    0.00376   -0.00450    0.03053
 12 Li    0.07161    0.03715    0.03549
 13 Li   -0.00475    0.02775    0.04386
 14 Li    0.00490    0.01701    0.29970
 15 Li   -0.07170    0.03666    0.01984
 16 Li    0.01195    0.00022   -0.02508
 17 Li   -0.00129   -0.06908   -0.01295
 18 Li   -0.00004    0.02787    0.05239
 19 Li   -0.01163    0.00372   -0.03245
 20 Li    0.01071   -0.01246   -0.02477
 21 Li   -0.00119    0.05790   -0.00321
 22 Li    0.00009   -0.04220    0.04508
 23 Li   -0.01027   -0.01554   -0.03200
 24 Li    0.09504   -0.00134    0.02110
 25 Li   -0.00070    0.01337   -0.11321
 26 Li    0.00362    0.01398   -0.06700
 27 Li   -0.10017   -0.00144    0.01110
 28 Li    0.01762   -0.00026   -0.04236
 29 Li    0.00465    0.04345    0.06102
 30 Li    0.00290   -0.04323    0.07092
 31 Li   -0.02338   -0.00627   -0.04587
 32 Li    0.02020   -0.00956   -0.04875
 33 Li    0.00502   -0.02920    0.02396
 34 Li    0.00257    0.03951    0.16014
 35 Li   -0.02593   -0.00473   -0.05113
 36 N     0.00195    0.01469   -0.13355
 37 N     0.00052    0.01625   -0.14415
 38 N    -0.00051    0.01723   -0.11991
 39 N    -0.00209    0.01487   -0.14098
 40 N    -0.07361    0.00643    0.04281
 41 N     0.00013    0.00938    0.04022
 42 N    -0.00019    0.00890   -0.05412
 43 N     0.07438    0.00612    0.04756
 44 N     0.01186    0.02276    0.08184
 45 N    -0.00487    0.01210    0.01422
 46 N     0.00485   -0.00762    0.05563
 47 N    -0.02283    0.02390    0.13420
 48 Li    0.01012   -0.04876   -0.15105

System changes: positions 

Initializing position-dependent things.

Density initialized from wave functions
     .----------------.  
    /|                |  
   / |                |  
  /  |                |  
 *   |                |  
 |   |                |  
 |   |                |  
 |   |                |  
 |   |                |  
 |   |                |  
 |   |                |  
 |   |                |  
 |   |                |  
 |   |                |  
 |   |                |  
 |   |                |  
 |   |                |  
 |   |                |  
 |   |                |  
 |   |                |  
 |   |                |  
 |   |                |  
 |   |                |  
 |   |                |  
 |   |                |  
 |   |   N Li         |  
 |   |      Li   N   Li  
 |   | Li  N    Li    |  
 |N  |LiLi     Li Li  |  
 |   |    Li          |  
 |Li |   N Li    N    |  
 |  Li      Li        |  
 |N  | Li  N    Li    |  
 |   |Li Li   Li Li   |  
 Li  |    Li          |  
 |   |   N Li    N Li |  
 |  Li      Li        |  
 |N  .-Li--N----Li----.  
 |  / Li Li   Li Li  /   
 Li/      Li        /    
 |/i       Li      /     
 *----------------*      

Positions:
   0 Li     1.753389    5.061850    0.000000    ( 0.0000,  0.0000,  0.0000)
   1 Li     0.000000    2.024928    0.000000    ( 0.0000,  0.0000,  0.0000)
   2 Li     3.506756    2.024928    0.000000    ( 0.0000,  0.0000,  0.0000)
   3 Li     5.260124    5.061850    0.000000    ( 0.0000,  0.0000,  0.0000)
   4 Li     1.753389    3.037256    1.946139    ( 0.0000,  0.0000,  0.0000)
   5 Li     0.000000    0.000334    1.946139    ( 0.0000,  0.0000,  0.0000)
   6 Li     3.506756    0.000334    1.946139    ( 0.0000,  0.0000,  0.0000)
   7 Li     5.260124    3.037256    1.946139    ( 0.0000,  0.0000,  0.0000)
   8 Li     1.753367    1.012631    1.946139    ( 0.0000,  0.0000,  0.0000)
   9 Li     0.000000    4.049553    1.946139    ( 0.0000,  0.0000,  0.0000)
  10 Li     3.506735    4.049553    1.946139    ( 0.0000,  0.0000,  0.0000)
  11 Li     5.260103    1.012631    1.946139    ( 0.0000,  0.0000,  0.0000)
  12 Li     1.754412    5.062380    3.920926    ( 0.0000,  0.0000,  0.0000)
  13 Li    -0.000068    2.025325    3.921045    ( 0.0000,  0.0000,  0.0000)
  14 Li     3.506826    2.025171    3.924700    ( 0.0000,  0.0000,  0.0000)
  15 Li     5.259099    5.062373    3.920702    ( 0.0000,  0.0000,  0.0000)
  16 Li     1.755025    3.074101    5.928514    ( 0.0000,  0.0000,  0.0000)
  17 Li     0.000077    0.045817    5.795138    ( 0.0000,  0.0000,  0.0000)
  18 Li     3.506908    0.030422    5.919413    ( 0.0000,  0.0000,  0.0000)
  19 Li     5.258609    3.072997    5.934998    ( 0.0000,  0.0000,  0.0000)
  20 Li     1.755749    1.046898    5.940555    ( 0.0000,  0.0000,  0.0000)
  21 Li     0.000101    4.073892    5.795009    ( 0.0000,  0.0000,  0.0000)
  22 Li     3.506902    4.095299    5.898626    ( 0.0000,  0.0000,  0.0000)
  23 Li     5.257936    1.047895    5.947637    ( 0.0000,  0.0000,  0.0000)
  24 Li     1.569012    5.090509    7.889456    ( 0.0000,  0.0000,  0.0000)
  25 Li     0.010590    2.062364    7.852339    ( 0.0000,  0.0000,  0.0000)
  26 Li     3.495344    2.107952    7.905118    ( 0.0000,  0.0000,  0.0000)
  27 Li     5.444446    5.089603    7.871162    ( 0.0000,  0.0000,  0.0000)
  28 Li     1.721196    3.102280    9.805038    ( 0.0000,  0.0000,  0.0000)
  29 Li    -0.003999    0.079591   10.369963    ( 0.0000,  0.0000,  0.0000)
  30 Li     3.508782    0.044549    9.799811    ( 0.0000,  0.0000,  0.0000)
  31 Li     5.295583    3.102319    9.775424    ( 0.0000,  0.0000,  0.0000)
  32 Li     1.706753    1.041042    9.768448    ( 0.0000,  0.0000,  0.0000)
  33 Li    -0.002964    4.085826   10.272189    ( 0.0000,  0.0000,  0.0000)
  34 Li     3.509735    4.111442    9.954568    ( 0.0000,  0.0000,  0.0000)
  35 Li     5.310633    1.040656    9.737153    ( 0.0000,  0.0000,  0.0000)
  36 N      1.753389    5.061910    1.929076    ( 0.0000,  0.0000,  0.0000)
  37 N      0.000000    2.024989    1.929076    ( 0.0000,  0.0000,  0.0000)
  38 N      3.506756    2.024989    1.929076    ( 0.0000,  0.0000,  0.0000)
  39 N      5.260124    5.061910    1.929076    ( 0.0000,  0.0000,  0.0000)
  40 N      1.744074    5.098319    5.858253    ( 0.0000,  0.0000,  0.0000)
  41 N      0.000717    2.061229    5.859376    ( 0.0000,  0.0000,  0.0000)
  42 N      3.506059    2.064412    5.914796    ( 0.0000,  0.0000,  0.0000)
  43 N      5.269315    5.098331    5.853822    ( 0.0000,  0.0000,  0.0000)
  44 N      1.735573    5.114921    9.843725    ( 0.0000,  0.0000,  0.0000)
  45 N      0.001914    2.077901    9.764087    ( 0.0000,  0.0000,  0.0000)
  46 N      3.508333    2.075208    9.868941    ( 0.0000,  0.0000,  0.0000)
  47 N      5.281655    5.114686    9.810092    ( 0.0000,  0.0000,  0.0000)
  48 Li     3.520993    1.977635   11.749308    ( 0.0000,  0.0000,  0.0000)

Unit cell:
           periodic     x           y           z      points  spacing
  1. axis:    yes    7.013470    0.000000    0.000000    40     0.1753
  2. axis:    yes    0.000000    6.073843    0.000000    32     0.1898
  3. axis:    yes    0.000000    0.000000   29.936001   160     0.1871

  Lengths:   7.013470   6.073843  29.936001
  Angles:   90.000000  90.000000  90.000000

Effective grid spacing dv^(1/3) = 0.1840

                     log10-error:    total        iterations:
           time      wfs    density  energy       fermi  poisson
iter:   1  10:17:56  -4.56         -154.778008    2             
iter:   2  10:18:07  -5.79  -3.18  -154.777609    2             
iter:   3  10:18:19  -6.63  -3.27  -154.777742    2             
iter:   4  10:18:30  -5.43  -3.32  -154.777682    2             
iter:   5  10:18:42  -6.78  -3.64  -154.777662    2             
iter:   6  10:18:53  -6.64  -3.70  -154.777610    2             
iter:   7  10:19:05  -6.57  -4.01  -154.777623    2             
iter:   8  10:19:16  -7.03  -3.89  -154.777599    2             
iter:   9  10:19:28  -7.09  -4.26  -154.777618    2             
iter:  10  10:19:39  -8.41  -4.47  -154.777609    2             

Converged after 10 iterations.

Dipole moment: (-0.223757, -2.616603, 5.712341) |e|*Ang

Energy contributions relative to reference atoms: (reference = -25283.807400)

Kinetic:       +178.984812
Potential:     -130.287723
External:        +0.000000
XC:            -202.430854
Entropy (-ST):   -0.021843
Local:           -1.032923
--------------------------
Free energy:   -154.788531
Extrapolated:  -154.777609

Non-local vdW-DF-cx correlation energy: 15.299788
Semilocal GGA_X_LV_RPW86+LDA_C_PW energy: -1089.029814
(Not including atomic contributions)
Fermi level: -0.94426

Showing only first 2 kpts
 Kpt  Band  Eigenvalues  Occupancy
  0    46     -1.24243    0.13333
  0    47     -0.85455    0.00638
  0    48     -0.74401    0.00017
  0    49     -0.26853    0.00000

  1    46     -1.31098    0.13333
  1    47     -1.16101    0.13324
  1    48     -0.88182    0.01479
  1    49     -0.30337    0.00000


No gap

Forces in eV/Ang:
  0 Li   -0.00039    0.00003   -0.10415
  1 Li    0.00005   -0.00006   -0.10342
  2 Li   -0.00004   -0.00001   -0.10278
  3 Li    0.00035    0.00002   -0.10389
  4 Li   -0.00300    0.00324    0.03038
  5 Li   -0.00021   -0.00015    0.03061
  6 Li    0.00021   -0.00013    0.02803
  7 Li    0.00274    0.00387    0.03047
  8 Li   -0.00295   -0.00313    0.03086
  9 Li   -0.00011   -0.00032    0.03057
 10 Li    0.00047   -0.00048    0.02715
 11 Li    0.00313   -0.00370    0.03103
 12 Li    0.06936    0.03614    0.03198
 13 Li   -0.00449    0.02720    0.03873
 14 Li    0.00467    0.01656    0.25967
 15 Li   -0.06942    0.03569    0.01863
 16 Li    0.00596    0.00071   -0.02398
 17 Li   -0.00096   -0.05593   -0.00992
 18 Li   -0.00017    0.01989    0.05322
 19 Li   -0.00576    0.00345   -0.03108
 20 Li    0.00488   -0.01108   -0.02317
 21 Li   -0.00086    0.04676   -0.00064
 22 Li   -0.00006   -0.03216    0.04530
 23 Li   -0.00459   -0.01347   -0.03015
 24 Li    0.09099   -0.00137    0.02483
 25 Li   -0.00076    0.01299   -0.09559
 26 Li    0.00346    0.01353   -0.05578
 27 Li   -0.09614   -0.00145    0.01944
 28 Li    0.01690    0.00020   -0.04193
 29 Li    0.00378    0.04112    0.06252
 30 Li    0.00226   -0.03676    0.07139
 31 Li   -0.02176   -0.00442   -0.04469
 32 Li    0.01763   -0.00758   -0.04832
 33 Li    0.00404   -0.02510    0.02571
 34 Li    0.00208    0.03335    0.16225
 35 Li   -0.02241   -0.00389   -0.04997
 36 N     0.00209    0.01499   -0.12737
 37 N     0.00038    0.01628   -0.13819
 38 N    -0.00037    0.01719   -0.10261
 39 N    -0.00223    0.01518   -0.13480
 40 N    -0.05216    0.00500    0.03790
 41 N    -0.00008    0.00729    0.02644
 42 N     0.00013    0.00713   -0.03830
 43 N     0.05264    0.00474    0.03955
 44 N     0.00951    0.01894    0.07503
 45 N    -0.00408    0.01043    0.00039
 46 N     0.00351   -0.00422    0.02604
 47 N    -0.01859    0.01983    0.12618
 48 Li    0.01039   -0.05012   -0.13183

System changes: positions 

Initializing position-dependent things.

Density initialized from wave functions
     .----------------.  
    /|                |  
   / |                |  
  /  |                |  
 *   |                |  
 |   |                |  
 |   |                |  
 |   |                |  
 |   |                |  
 |   |                |  
 |   |                |  
 |   |                |  
 |   |                |  
 |   |                |  
 |   |                |  
 |   |                |  
 |   |                |  
 |   |                |  
 |   |                |  
 |   |                |  
 |   |                |  
 |   |                |  
 |   |                |  
 |   |                |  
 |   |                |  
 |   |   N Li    N    |  
 |   |      Li       Li  
 |   | Li  N    Li    |  
 |N  |LiLi     Li Li  |  
 |   |    Li          |  
 |Li |   N Li    N    |  
 |   |      Li       Li  
 |N  | Li  N    Li    |  
 |   |Li Li   Li Li   |  
 |   |    Li      Li  |  
 |   |   N Li    N Li |  
 |  Li      Li        |  
 |N  .-Li--N----Li----.  
 |  / Li Li   Li Li  /   
 Li/      Li        /    
 |/i       Li      /     
 *----------------*      

Positions:
   0 Li     1.753389    5.061850    0.000000    ( 0.0000,  0.0000,  0.0000)
   1 Li     0.000000    2.024928    0.000000    ( 0.0000,  0.0000,  0.0000)
   2 Li     3.506756    2.024928    0.000000    ( 0.0000,  0.0000,  0.0000)
   3 Li     5.260124    5.061850    0.000000    ( 0.0000,  0.0000,  0.0000)
   4 Li     1.753389    3.037256    1.946139    ( 0.0000,  0.0000,  0.0000)
   5 Li     0.000000    0.000334    1.946139    ( 0.0000,  0.0000,  0.0000)
   6 Li     3.506756    0.000334    1.946139    ( 0.0000,  0.0000,  0.0000)
   7 Li     5.260124    3.037256    1.946139    ( 0.0000,  0.0000,  0.0000)
   8 Li     1.753367    1.012631    1.946139    ( 0.0000,  0.0000,  0.0000)
   9 Li     0.000000    4.049553    1.946139    ( 0.0000,  0.0000,  0.0000)
  10 Li     3.506735    4.049553    1.946139    ( 0.0000,  0.0000,  0.0000)
  11 Li     5.260103    1.012631    1.946139    ( 0.0000,  0.0000,  0.0000)
  12 Li     1.764444    5.067606    3.925579    ( 0.0000,  0.0000,  0.0000)
  13 Li    -0.000719    2.029255    3.926692    ( 0.0000,  0.0000,  0.0000)
  14 Li     3.507502    2.027566    3.962620    ( 0.0000,  0.0000,  0.0000)
  15 Li     5.249057    5.067534    3.923404    ( 0.0000,  0.0000,  0.0000)
  16 Li     1.755953    3.074198    5.925042    ( 0.0000,  0.0000,  0.0000)
  17 Li    -0.000065    0.037598    5.793672    ( 0.0000,  0.0000,  0.0000)
  18 Li     3.506885    0.033382    5.927082    ( 0.0000,  0.0000,  0.0000)
  19 Li     5.257711    3.073498    5.930498    ( 0.0000,  0.0000,  0.0000)
  20 Li     1.756520    1.045283    5.937194    ( 0.0000,  0.0000,  0.0000)
  21 Li    -0.000028    4.080766    5.794888    ( 0.0000,  0.0000,  0.0000)
  22 Li     3.506894    4.090545    5.905160    ( 0.0000,  0.0000,  0.0000)
  23 Li     5.257208    1.045928    5.943267    ( 0.0000,  0.0000,  0.0000)
  24 Li     1.582186    5.090311    7.892995    ( 0.0000,  0.0000,  0.0000)
  25 Li     0.010481    2.064242    7.838347    ( 0.0000,  0.0000,  0.0000)
  26 Li     3.495845    2.109909    7.896943    ( 0.0000,  0.0000,  0.0000)
  27 Li     5.430529    5.089394    7.873871    ( 0.0000,  0.0000,  0.0000)
  28 Li     1.723643    3.102304    9.798984    ( 0.0000,  0.0000,  0.0000)
  29 Li    -0.003443    0.085549   10.378966    ( 0.0000,  0.0000,  0.0000)
  30 Li     3.509115    0.039171    9.810105    ( 0.0000,  0.0000,  0.0000)
  31 Li     5.292425    3.101660    9.768962    ( 0.0000,  0.0000,  0.0000)
  32 Li     1.709326    1.039925    9.761472    ( 0.0000,  0.0000,  0.0000)
  33 Li    -0.002371    4.082158   10.275878    ( 0.0000,  0.0000,  0.0000)
  34 Li     3.510040    4.116323    9.977951    ( 0.0000,  0.0000,  0.0000)
  35 Li     5.307360    1.040085    9.729931    ( 0.0000,  0.0000,  0.0000)
  36 N      1.753389    5.061910    1.929076    ( 0.0000,  0.0000,  0.0000)
  37 N      0.000000    2.024989    1.929076    ( 0.0000,  0.0000,  0.0000)
  38 N      3.506756    2.024989    1.929076    ( 0.0000,  0.0000,  0.0000)
  39 N      5.260124    5.061910    1.929076    ( 0.0000,  0.0000,  0.0000)
  40 N      1.736305    5.099056    5.863777    ( 0.0000,  0.0000,  0.0000)
  41 N      0.000708    2.062305    5.863348    ( 0.0000,  0.0000,  0.0000)
  42 N      3.506075    2.065460    5.909090    ( 0.0000,  0.0000,  0.0000)
  43 N      5.277158    5.099032    5.859619    ( 0.0000,  0.0000,  0.0000)
  44 N      1.736972    5.117697    9.854627    ( 0.0000,  0.0000,  0.0000)
  45 N      0.001316    2.079425    9.764301    ( 0.0000,  0.0000,  0.0000)
  46 N      3.508855    2.074561    9.873035    ( 0.0000,  0.0000,  0.0000)
  47 N      5.278924    5.117594    9.828387    ( 0.0000,  0.0000,  0.0000)
  48 Li     3.522490    1.970419   11.730069    ( 0.0000,  0.0000,  0.0000)

Unit cell:
           periodic     x           y           z      points  spacing
  1. axis:    yes    7.013470    0.000000    0.000000    40     0.1753
  2. axis:    yes    0.000000    6.073843    0.000000    32     0.1898
  3. axis:    yes    0.000000    0.000000   29.936001   160     0.1871

  Lengths:   7.013470   6.073843  29.936001
  Angles:   90.000000  90.000000  90.000000

Effective grid spacing dv^(1/3) = 0.1840

                     log10-error:    total        iterations:
           time      wfs    density  energy       fermi  poisson
iter:   1  10:20:02  -2.68         -154.812256    4             
iter:   2  10:20:14  -3.92  -2.30  -154.807137    3             
iter:   3  10:20:25  -4.57  -2.37  -154.803881    3             
iter:   4  10:20:37  -3.68  -2.45  -154.800724    3             
iter:   5  10:20:49  -5.07  -2.71  -154.799688    2             
iter:   6  10:21:00  -4.87  -2.78  -154.798218    2             
iter:   7  10:21:12  -4.85  -3.09  -154.798770    3             
iter:   8  10:21:23  -5.36  -2.99  -154.798068    2             
iter:   9  10:21:35  -5.11  -3.26  -154.798182    3             
iter:  10  10:21:46  -6.50  -3.51  -154.798085    2             
iter:  11  10:21:58  -6.51  -3.58  -154.798097    2             
iter:  12  10:22:09  -6.60  -3.60  -154.798035    2             
iter:  13  10:22:21  -6.80  -3.79  -154.798054    2             
iter:  14  10:22:32  -6.87  -3.85  -154.798074    2             
iter:  15  10:22:44  -7.70  -3.97  -154.798085    2             
iter:  16  10:22:55  -7.68  -4.11  -154.798067    2             
iter:  17  10:23:07  -8.56  -4.35  -154.798070    2             

Converged after 17 iterations.

Dipole moment: (-0.180592, -2.544669, 5.713508) |e|*Ang

Energy contributions relative to reference atoms: (reference = -25283.807400)

Kinetic:       +179.106953
Potential:     -130.406611
External:        +0.000000
XC:            -202.454748
Entropy (-ST):   -0.021825
Local:           -1.032750
--------------------------
Free energy:   -154.808982
Extrapolated:  -154.798070

Non-local vdW-DF-cx correlation energy: 15.302162
Semilocal GGA_X_LV_RPW86+LDA_C_PW energy: -1089.047228
(Not including atomic contributions)
Fermi level: -0.94854

Showing only first 2 kpts
 Kpt  Band  Eigenvalues  Occupancy
  0    46     -1.24867    0.13333
  0    47     -0.85648    0.00592
  0    48     -0.75011    0.00018
  0    49     -0.27891    0.00000

  1    46     -1.31524    0.13333
  1    47     -1.16332    0.13323
  1    48     -0.88816    0.01572
  1    49     -0.30736    0.00000


No gap

Forces in eV/Ang:
  0 Li    0.00063   -0.00012   -0.10346
  1 Li    0.00010   -0.00019   -0.10223
  2 Li   -0.00010   -0.00012   -0.09722
  3 Li   -0.00066   -0.00013   -0.10363
  4 Li    0.00381   -0.00089    0.04093
  5 Li    0.00039    0.00002    0.03868
  6 Li   -0.00042    0.01356    0.02590
  7 Li   -0.00408   -0.00063    0.03931
  8 Li    0.00331    0.00399    0.03921
  9 Li    0.00051    0.00215    0.04008
 10 Li   -0.00016   -0.01250    0.02805
 11 Li   -0.00314    0.00377    0.03772
 12 Li    0.04463    0.02562    0.00061
 13 Li   -0.00192    0.02132   -0.00897
 14 Li    0.00233    0.01156   -0.08695
 15 Li   -0.04449    0.02551    0.00533
 16 Li   -0.04215    0.00599   -0.01406
 17 Li    0.00159    0.04553    0.01899
 18 Li   -0.00117   -0.03775    0.05936
 19 Li    0.04152    0.00297   -0.01865
 20 Li   -0.04172   -0.00048   -0.00821
 21 Li    0.00164   -0.03778    0.02332
 22 Li   -0.00125    0.04368    0.04576
 23 Li    0.04098    0.00235   -0.01284
 24 Li    0.05054   -0.00100    0.05233
 25 Li   -0.00132    0.00856    0.04183
 26 Li    0.00188    0.00976    0.03089
 27 Li   -0.05499   -0.00075    0.08321
 28 Li    0.00957    0.00601   -0.04210
 29 Li   -0.00352    0.02116    0.07371
 30 Li   -0.00320    0.01342    0.07141
 31 Li   -0.00696    0.01219   -0.03714
 32 Li   -0.00579    0.00629   -0.04855
 33 Li   -0.00408    0.00946    0.04025
 34 Li   -0.00212   -0.01354    0.17664
 35 Li    0.00906    0.00091   -0.04268
 36 N     0.00856    0.01803   -0.10417
 37 N    -0.00077    0.01705   -0.12063
 38 N     0.00079    0.01704   -0.01118
 39 N    -0.00868    0.01809   -0.11230
 40 N     0.09231   -0.00582    0.01760
 41 N    -0.00156   -0.00663   -0.04902
 42 N     0.00198   -0.00616    0.09112
 43 N    -0.09393   -0.00564    0.00272
 44 N     0.01250   -0.00866    0.03079
 45 N     0.00130    0.00106   -0.09213
 46 N    -0.00437    0.01313   -0.17839
 47 N    -0.01035   -0.00895    0.06272
 48 Li    0.01287   -0.06333    0.03149

System changes: positions 

Initializing position-dependent things.

Density initialized from wave functions
     .----------------.  
    /|                |  
   / |                |  
  /  |                |  
 *   |                |  
 |   |                |  
 |   |                |  
 |   |                |  
 |   |                |  
 |   |                |  
 |   |                |  
 |   |                |  
 |   |                |  
 |   |                |  
 |   |                |  
 |   |                |  
 |   |                |  
 |   |                |  
 |   |                |  
 |   |                |  
 |   |                |  
 |   |                |  
 |   |                |  
 |   |                |  
 |   |                |  
 |   |   N Li    N    |  
 |   |      Li       Li  
 |   | Li  N    Li    |  
 |N  |LiLi     Li Li  |  
 |   |    Li          |  
 |Li |   N Li    N    |  
 |   |      Li       Li  
 |N  | Li  N    Li    |  
 |   |Li Li   Li Li   |  
 |   |    Li      Li  |  
 |   |   N Li    N Li |  
 |  Li      Li        |  
 |N  .-Li--N----Li----.  
 |  / Li Li   Li Li  /   
 Li/      Li        /    
 |/i       Li      /     
 *----------------*      

Positions:
   0 Li     1.753389    5.061850    0.000000    ( 0.0000,  0.0000,  0.0000)
   1 Li     0.000000    2.024928    0.000000    ( 0.0000,  0.0000,  0.0000)
   2 Li     3.506756    2.024928    0.000000    ( 0.0000,  0.0000,  0.0000)
   3 Li     5.260124    5.061850    0.000000    ( 0.0000,  0.0000,  0.0000)
   4 Li     1.753389    3.037256    1.946139    ( 0.0000,  0.0000,  0.0000)
   5 Li     0.000000    0.000334    1.946139    ( 0.0000,  0.0000,  0.0000)
   6 Li     3.506756    0.000334    1.946139    ( 0.0000,  0.0000,  0.0000)
   7 Li     5.260124    3.037256    1.946139    ( 0.0000,  0.0000,  0.0000)
   8 Li     1.753367    1.012631    1.946139    ( 0.0000,  0.0000,  0.0000)
   9 Li     0.000000    4.049553    1.946139    ( 0.0000,  0.0000,  0.0000)
  10 Li     3.506735    4.049553    1.946139    ( 0.0000,  0.0000,  0.0000)
  11 Li     5.260103    1.012631    1.946139    ( 0.0000,  0.0000,  0.0000)
  12 Li     1.767228    5.069093    3.926570    ( 0.0000,  0.0000,  0.0000)
  13 Li    -0.000885    2.030405    3.927745    ( 0.0000,  0.0000,  0.0000)
  14 Li     3.507679    2.028244    3.969321    ( 0.0000,  0.0000,  0.0000)
  15 Li     5.246274    5.069005    3.924051    ( 0.0000,  0.0000,  0.0000)
  16 Li     1.755520    3.074310    5.924099    ( 0.0000,  0.0000,  0.0000)
  17 Li    -0.000071    0.036532    5.793651    ( 0.0000,  0.0000,  0.0000)
  18 Li     3.506863    0.033454    5.929593    ( 0.0000,  0.0000,  0.0000)
  19 Li     5.258141    3.073650    5.929268    ( 0.0000,  0.0000,  0.0000)
  20 Li     1.756060    1.044933    5.936362    ( 0.0000,  0.0000,  0.0000)
  21 Li    -0.000031    4.081664    5.795215    ( 0.0000,  0.0000,  0.0000)
  22 Li     3.506874    4.090184    5.907226    ( 0.0000,  0.0000,  0.0000)
  23 Li     5.257667    1.045545    5.942152    ( 0.0000,  0.0000,  0.0000)
  24 Li     1.585721    5.090255    7.894524    ( 0.0000,  0.0000,  0.0000)
  25 Li     0.010438    2.064766    7.836003    ( 0.0000,  0.0000,  0.0000)
  26 Li     3.495978    2.110470    7.895669    ( 0.0000,  0.0000,  0.0000)
  27 Li     5.426771    5.089340    7.875684    ( 0.0000,  0.0000,  0.0000)
  28 Li     1.724302    3.102402    9.797067    ( 0.0000,  0.0000,  0.0000)
  29 Li    -0.003378    0.087126   10.381973    ( 0.0000,  0.0000,  0.0000)
  30 Li     3.509138    0.038230    9.813347    ( 0.0000,  0.0000,  0.0000)
  31 Li     5.291654    3.101704    9.767036    ( 0.0000,  0.0000,  0.0000)
  32 Li     1.709781    1.039780    9.759265    ( 0.0000,  0.0000,  0.0000)
  33 Li    -0.002306    4.081524   10.277261    ( 0.0000,  0.0000,  0.0000)
  34 Li     3.510073    4.117158    9.985540    ( 0.0000,  0.0000,  0.0000)
  35 Li     5.306806    1.039976    9.727761    ( 0.0000,  0.0000,  0.0000)
  36 N      1.753389    5.061910    1.929076    ( 0.0000,  0.0000,  0.0000)
  37 N      0.000000    2.024989    1.929076    ( 0.0000,  0.0000,  0.0000)
  38 N      3.506756    2.024989    1.929076    ( 0.0000,  0.0000,  0.0000)
  39 N      5.260124    5.061910    1.929076    ( 0.0000,  0.0000,  0.0000)
  40 N      1.736002    5.099126    5.865234    ( 0.0000,  0.0000,  0.0000)
  41 N      0.000683    2.062438    5.863502    ( 0.0000,  0.0000,  0.0000)
  42 N      3.506106    2.065592    5.909246    ( 0.0000,  0.0000,  0.0000)
  43 N      5.277452    5.099096    5.860923    ( 0.0000,  0.0000,  0.0000)
  44 N      1.737484    5.118160    9.857410    ( 0.0000,  0.0000,  0.0000)
  45 N      0.001208    2.079769    9.762994    ( 0.0000,  0.0000,  0.0000)
  46 N      3.508904    2.074607    9.871280    ( 0.0000,  0.0000,  0.0000)
  47 N      5.278158    5.118081    9.833201    ( 0.0000,  0.0000,  0.0000)
  48 Li     3.522999    1.967941   11.726476    ( 0.0000,  0.0000,  0.0000)

Unit cell:
           periodic     x           y           z      points  spacing
  1. axis:    yes    7.013470    0.000000    0.000000    40     0.1753
  2. axis:    yes    0.000000    6.073843    0.000000    32     0.1898
  3. axis:    yes    0.000000    0.000000   29.936001   160     0.1871

  Lengths:   7.013470   6.073843  29.936001
  Angles:   90.000000  90.000000  90.000000

Effective grid spacing dv^(1/3) = 0.1840

                     log10-error:    total        iterations:
           time      wfs    density  energy       fermi  poisson
iter:   1  10:23:30  -4.05         -154.801869    2             
iter:   2  10:23:41  -5.23  -3.12  -154.801741    2             
iter:   3  10:23:53  -5.34  -3.18  -154.801774    2             
iter:   4  10:24:04  -5.83  -3.45  -154.801628    2             
iter:   5  10:24:16  -6.95  -3.48  -154.801621    2             
iter:   6  10:24:27  -6.35  -3.57  -154.801567    2             
iter:   7  10:24:39  -6.58  -3.86  -154.801588    2             
iter:   8  10:24:51  -6.50  -3.75  -154.801531    2             
iter:   9  10:25:02  -7.04  -4.06  -154.801569    2             
iter:  10  10:25:14  -8.16  -4.25  -154.801562    2             

Converged after 10 iterations.

Dipole moment: (-0.170010, -2.535103, 5.715402) |e|*Ang

Energy contributions relative to reference atoms: (reference = -25283.807400)

Kinetic:       +179.097288
Potential:     -130.405846
External:        +0.000000
XC:            -202.449486
Entropy (-ST):   -0.021791
Local:           -1.032622
--------------------------
Free energy:   -154.812458
Extrapolated:  -154.801562

Non-local vdW-DF-cx correlation energy: 15.302402
Semilocal GGA_X_LV_RPW86+LDA_C_PW energy: -1089.042132
(Not including atomic contributions)
Fermi level: -0.94941

Showing only first 2 kpts
 Kpt  Band  Eigenvalues  Occupancy
  0    46     -1.25071    0.13333
  0    47     -0.85652    0.00577
  0    48     -0.75142    0.00018
  0    49     -0.28049    0.00000

  1    46     -1.31539    0.13333
  1    47     -1.16326    0.13323
  1    48     -0.88955    0.01596
  1    49     -0.30805    0.00000


No gap

Forces in eV/Ang:
  0 Li    0.00036   -0.00017   -0.10319
  1 Li    0.00009   -0.00026   -0.10193
  2 Li   -0.00009   -0.00018   -0.09584
  3 Li   -0.00039   -0.00017   -0.10347
  4 Li    0.00484   -0.00137    0.04346
  5 Li    0.00051   -0.00004    0.04077
  6 Li   -0.00054    0.01599    0.02536
  7 Li   -0.00511   -0.00107    0.04143
  8 Li    0.00417    0.00535    0.04117
  9 Li    0.00062    0.00290    0.04249
 10 Li   -0.00029   -0.01453    0.02837
 11 Li   -0.00400    0.00510    0.03926
 12 Li    0.03922    0.02281   -0.00395
 13 Li   -0.00129    0.01953   -0.02142
 14 Li    0.00171    0.01024   -0.14494
 15 Li   -0.03903    0.02276    0.00320
 16 Li   -0.04131    0.00536   -0.01139
 17 Li    0.00168    0.05507    0.02423
 18 Li   -0.00115   -0.03854    0.06090
 19 Li    0.04068    0.00201   -0.01533
 20 Li   -0.04074    0.00272   -0.00464
 21 Li    0.00170   -0.04478    0.02768
 22 Li   -0.00125    0.04740    0.04624
 23 Li    0.03997    0.00582   -0.00866
 24 Li    0.04223   -0.00136    0.05449
 25 Li   -0.00138    0.00784    0.05742
 26 Li    0.00151    0.00946    0.03876
 27 Li   -0.04625   -0.00105    0.08986
 28 Li    0.00617    0.00748   -0.04434
 29 Li   -0.00425    0.01685    0.07603
 30 Li   -0.00403    0.02218    0.06812
 31 Li   -0.00289    0.01487   -0.03771
 32 Li   -0.01162    0.00807   -0.05050
 33 Li   -0.00485    0.01493    0.04333
 34 Li   -0.00280   -0.02195    0.17779
 35 Li    0.01570    0.00167   -0.04309
 36 N     0.01061    0.01875   -0.09922
 37 N    -0.00092    0.01740   -0.11478
 38 N     0.00096    0.01702    0.00750
 39 N    -0.01072    0.01877   -0.10809
 40 N     0.10402   -0.00681    0.01462
 41 N    -0.00150   -0.00857   -0.06098
 42 N     0.00184   -0.00768    0.11418
 43 N    -0.10587   -0.00655    0.00066
 44 N     0.00229   -0.01188    0.02317
 45 N     0.00250    0.00057   -0.09884
 46 N    -0.00582    0.01495   -0.17974
 47 N     0.00227   -0.01236    0.04658
 48 Li    0.01327   -0.06557    0.04903

System changes: positions 

Initializing position-dependent things.

Density initialized from wave functions
     .----------------.  
    /|                |  
   / |                |  
  /  |                |  
 *   |                |  
 |   |                |  
 |   |                |  
 |   |                |  
 |   |                |  
 |   |                |  
 |   |                |  
 |   |                |  
 |   |                |  
 |   |                |  
 |   |                |  
 |   |                |  
 |   |                |  
 |   |                |  
 |   |                |  
 |   |                |  
 |   |                |  
 |   |                |  
 |   |                |  
 |   |                |  
 |   |                |  
 |   |   N Li    N    |  
 |   |      Li       Li  
 |   | Li  N    Li    |  
 |N  |LiLi     LiLLi  |  
 |   |    Li          |  
 |Li |   N Li    N    |  
 |  Li      Li        |  
 |N  | Li  N    Li    |  
 |   |Li Li   Li Li   |  
 |   |    Li      Li  |  
 |   |   N Li    N Li |  
 |  Li      Li        |  
 |N  .-Li--N----Li----.  
 |  / Li Li   Li Li  /   
 Li/      Li        /    
 |/i       Li      /     
 *----------------*      

Positions:
   0 Li     1.753389    5.061850    0.000000    ( 0.0000,  0.0000,  0.0000)
   1 Li     0.000000    2.024928    0.000000    ( 0.0000,  0.0000,  0.0000)
   2 Li     3.506756    2.024928    0.000000    ( 0.0000,  0.0000,  0.0000)
   3 Li     5.260124    5.061850    0.000000    ( 0.0000,  0.0000,  0.0000)
   4 Li     1.753389    3.037256    1.946139    ( 0.0000,  0.0000,  0.0000)
   5 Li     0.000000    0.000334    1.946139    ( 0.0000,  0.0000,  0.0000)
   6 Li     3.506756    0.000334    1.946139    ( 0.0000,  0.0000,  0.0000)
   7 Li     5.260124    3.037256    1.946139    ( 0.0000,  0.0000,  0.0000)
   8 Li     1.753367    1.012631    1.946139    ( 0.0000,  0.0000,  0.0000)
   9 Li     0.000000    4.049553    1.946139    ( 0.0000,  0.0000,  0.0000)
  10 Li     3.506735    4.049553    1.946139    ( 0.0000,  0.0000,  0.0000)
  11 Li     5.260103    1.012631    1.946139    ( 0.0000,  0.0000,  0.0000)
  12 Li     1.781918    5.077014    3.931067    ( 0.0000,  0.0000,  0.0000)
  13 Li    -0.001713    2.036609    3.931657    ( 0.0000,  0.0000,  0.0000)
  14 Li     3.508578    2.031848    3.994597    ( 0.0000,  0.0000,  0.0000)
  15 Li     5.231593    5.076850    3.927219    ( 0.0000,  0.0000,  0.0000)
  16 Li     1.751956    3.075029    5.919207    ( 0.0000,  0.0000,  0.0000)
  17 Li    -0.000040    0.033651    5.794606    ( 0.0000,  0.0000,  0.0000)
  18 Li     3.506713    0.032401    5.943985    ( 0.0000,  0.0000,  0.0000)
  19 Li     5.261670    3.074437    5.922873    ( 0.0000,  0.0000,  0.0000)
  20 Li     1.752392    1.043438    5.932290    ( 0.0000,  0.0000,  0.0000)
  21 Li     0.000018    4.084185    5.797945    ( 0.0000,  0.0000,  0.0000)
  22 Li     3.506731    4.090255    5.918901    ( 0.0000,  0.0000,  0.0000)
  23 Li     5.261298    1.044010    5.936587    ( 0.0000,  0.0000,  0.0000)
  24 Li     1.604063    5.089927    7.903947    ( 0.0000,  0.0000,  0.0000)
  25 Li     0.010179    2.067557    7.827214    ( 0.0000,  0.0000,  0.0000)
  26 Li     3.496668    2.113511    7.891139    ( 0.0000,  0.0000,  0.0000)
  27 Li     5.407222    5.089031    7.887900    ( 0.0000,  0.0000,  0.0000)
  28 Li     1.727603    3.103197    9.786114    ( 0.0000,  0.0000,  0.0000)
  29 Li    -0.003243    0.095224   10.399337    ( 0.0000,  0.0000,  0.0000)
  30 Li     3.509073    0.034748    9.831381    ( 0.0000,  0.0000,  0.0000)
  31 Li     5.287954    3.102549    9.756332    ( 0.0000,  0.0000,  0.0000)
  32 Li     1.711370    1.039418    9.746686    ( 0.0000,  0.0000,  0.0000)
  33 Li    -0.002194    4.079176   10.285618    ( 0.0000,  0.0000,  0.0000)
  34 Li     3.510107    4.120151   10.028705    ( 0.0000,  0.0000,  0.0000)
  35 Li     5.304913    1.039522    9.715686    ( 0.0000,  0.0000,  0.0000)
  36 N      1.753389    5.061910    1.929076    ( 0.0000,  0.0000,  0.0000)
  37 N      0.000000    2.024989    1.929076    ( 0.0000,  0.0000,  0.0000)
  38 N      3.506756    2.024989    1.929076    ( 0.0000,  0.0000,  0.0000)
  39 N      5.260124    5.061910    1.929076    ( 0.0000,  0.0000,  0.0000)
  40 N      1.738571    5.099190    5.872788    ( 0.0000,  0.0000,  0.0000)
  41 N      0.000510    2.062718    5.861793    ( 0.0000,  0.0000,  0.0000)
  42 N      3.506320    2.065904    5.914855    ( 0.0000,  0.0000,  0.0000)
  43 N      5.274768    5.099147    5.867286    ( 0.0000,  0.0000,  0.0000)
  44 N      1.739800    5.119877    9.871508    ( 0.0000,  0.0000,  0.0000)
  45 N      0.000808    2.081451    9.752951    ( 0.0000,  0.0000,  0.0000)
  46 N      3.508895    2.075393    9.856357    ( 0.0000,  0.0000,  0.0000)
  47 N      5.274834    5.119897    9.857671    ( 0.0000,  0.0000,  0.0000)
  48 Li     3.525958    1.953508   11.711449    ( 0.0000,  0.0000,  0.0000)

Unit cell:
           periodic     x           y           z      points  spacing
  1. axis:    yes    7.013470    0.000000    0.000000    40     0.1753
  2. axis:    yes    0.000000    6.073843    0.000000    32     0.1898
  3. axis:    yes    0.000000    0.000000   29.936001   160     0.1871

  Lengths:   7.013470   6.073843  29.936001
  Angles:   90.000000  90.000000  90.000000

Effective grid spacing dv^(1/3) = 0.1840

                     log10-error:    total        iterations:
           time      wfs    density  energy       fermi  poisson
iter:   1  10:25:37  -2.66         -154.822306    3             
iter:   2  10:25:48  -3.83  -2.52  -154.822545    2             
iter:   3  10:26:00  -4.55  -2.55  -154.820160    3             
iter:   4  10:26:11  -4.28  -2.68  -154.819671    2             
iter:   5  10:26:23  -5.63  -2.86  -154.819163    2             
iter:   6  10:26:34  -4.99  -2.92  -154.818694    2             
iter:   7  10:26:46  -5.17  -3.21  -154.819131    2             
iter:   8  10:26:57  -6.00  -3.14  -154.818902    2             
iter:   9  10:27:09  -5.67  -3.31  -154.818774    2             
iter:  10  10:27:20  -6.74  -3.57  -154.818755    2             
iter:  11  10:27:32  -6.43  -3.61  -154.818826    2             
iter:  12  10:27:44  -7.54  -3.80  -154.818780    2             
iter:  13  10:27:55  -7.52  -3.86  -154.818795    2             
iter:  14  10:28:07  -7.41  -3.95  -154.818785    2             
iter:  15  10:28:18  -7.82  -4.11  -154.818777    2             
iter:  16  10:28:30  -7.49  -4.19  -154.818777    2             
iter:  17  10:28:41  -7.63  -4.40  -154.818782    2             
iter:  18  10:28:53  -8.50  -4.44  -154.818780    2             

Converged after 18 iterations.

Dipole moment: (-0.120863, -2.509000, 5.722146) |e|*Ang

Energy contributions relative to reference atoms: (reference = -25283.807400)

Kinetic:       +178.960322
Potential:     -130.342922
External:        +0.000000
XC:            -202.391561
Entropy (-ST):   -0.021512
Local:           -1.033864
--------------------------
Free energy:   -154.829536
Extrapolated:  -154.818780

Non-local vdW-DF-cx correlation energy: 15.302563
Semilocal GGA_X_LV_RPW86+LDA_C_PW energy: -1088.994194
(Not including atomic contributions)
Fermi level: -0.95242

Showing only first 2 kpts
 Kpt  Band  Eigenvalues  Occupancy
  0    46     -1.26158    0.13333
  0    47     -0.85515    0.00501
  0    48     -0.75627    0.00019
  0    49     -0.28631    0.00000

  1    46     -1.31467    0.13333
  1    47     -1.16061    0.13320
  1    48     -0.89481    0.01704
  1    49     -0.31028    0.00000


No gap

Forces in eV/Ang:
  0 Li    0.00082   -0.00039   -0.10205
  1 Li    0.00012   -0.00039   -0.10061
  2 Li   -0.00012   -0.00027   -0.09266
  3 Li   -0.00085   -0.00040   -0.10260
  4 Li    0.00839   -0.00256    0.05187
  5 Li    0.00081   -0.00087    0.05257
  6 Li   -0.00089    0.02724    0.01693
  7 Li   -0.00870   -0.00228    0.04823
  8 Li    0.00661    0.01105    0.04636
  9 Li    0.00093    0.00780    0.05568
 10 Li   -0.00064   -0.02346    0.02509
 11 Li   -0.00646    0.01081    0.04293
 12 Li    0.00982    0.00754   -0.01596
 13 Li    0.00174    0.00927   -0.07751
 14 Li   -0.00139    0.00338   -0.33661
 15 Li   -0.00942    0.00776   -0.00152
 16 Li   -0.01286    0.00007    0.00289
 17 Li    0.00082    0.06161    0.04731
 18 Li   -0.00047   -0.01234    0.06726
 19 Li    0.01261   -0.00238    0.00187
 20 Li   -0.01191    0.01678    0.01424
 21 Li    0.00073   -0.04239    0.04594
 22 Li   -0.00063    0.03280    0.04803
 23 Li    0.01141    0.01880    0.01283
 24 Li    0.00384   -0.00317    0.05167
 25 Li   -0.00115    0.00343    0.08518
 26 Li   -0.00059    0.00924    0.04937
 27 Li   -0.00463   -0.00260    0.09591
 28 Li   -0.00866    0.01537   -0.06013
 29 Li   -0.00582    0.00275    0.08396
 30 Li   -0.00690    0.04742    0.04526
 31 Li    0.01268    0.02443   -0.04457
 32 Li   -0.03619    0.01070   -0.06388
 33 Li   -0.00596    0.02986    0.05619
 34 Li   -0.00536   -0.04674    0.17565
 35 Li    0.04172    0.00290   -0.04851
 36 N     0.02106    0.02295   -0.08294
 37 N    -0.00175    0.01901   -0.10722
 38 N     0.00188    0.01700    0.04976
 39 N    -0.02112    0.02273   -0.09321
 40 N     0.09180   -0.00830   -0.00078
 41 N    -0.00058   -0.01116   -0.08782
 42 N     0.00044   -0.01154    0.12922
 43 N    -0.09396   -0.00775   -0.00382
 44 N    -0.00339   -0.01625    0.01606
 45 N     0.00325   -0.00179   -0.09266
 46 N    -0.00566    0.01217   -0.10710
 47 N     0.00957   -0.01597    0.00799
 48 Li    0.01450   -0.07605    0.07754

System changes: positions 

Initializing position-dependent things.

Density initialized from wave functions
     .----------------.  
    /|                |  
   / |                |  
  /  |                |  
 *   |                |  
 |   |                |  
 |   |                |  
 |   |                |  
 |   |                |  
 |   |                |  
 |   |                |  
 |   |                |  
 |   |                |  
 |   |                |  
 |   |                |  
 |   |                |  
 |   |                |  
 |   |                |  
 |   |                |  
 |   |                |  
 |   |                |  
 |   |                |  
 |   |                |  
 |   |                |  
 |   |                |  
 |   |   N Li    N    |  
 |   |      Li       Li  
 |   | Li  N    Li    |  
 |N  |LiLi     LiLLi  |  
 |   |    Li          |  
 |Li |   N Li    N    |  
 |  Li      Li        |  
 |N  | Li  N    Li    |  
 |   |Li Li   Li Li   |  
 Li  |    Li          |  
 |   |   N Li    N Li |  
 |  Li      Li        |  
 |N  .-Li--N----Li----.  
 |  / Li Li   Li Li  /   
 Li/      Li        /    
 |/i       Li      /     
 *----------------*      

Positions:
   0 Li     1.753389    5.061850    0.000000    ( 0.0000,  0.0000,  0.0000)
   1 Li     0.000000    2.024928    0.000000    ( 0.0000,  0.0000,  0.0000)
   2 Li     3.506756    2.024928    0.000000    ( 0.0000,  0.0000,  0.0000)
   3 Li     5.260124    5.061850    0.000000    ( 0.0000,  0.0000,  0.0000)
   4 Li     1.753389    3.037256    1.946139    ( 0.0000,  0.0000,  0.0000)
   5 Li     0.000000    0.000334    1.946139    ( 0.0000,  0.0000,  0.0000)
   6 Li     3.506756    0.000334    1.946139    ( 0.0000,  0.0000,  0.0000)
   7 Li     5.260124    3.037256    1.946139    ( 0.0000,  0.0000,  0.0000)
   8 Li     1.753367    1.012631    1.946139    ( 0.0000,  0.0000,  0.0000)
   9 Li     0.000000    4.049553    1.946139    ( 0.0000,  0.0000,  0.0000)
  10 Li     3.506735    4.049553    1.946139    ( 0.0000,  0.0000,  0.0000)
  11 Li     5.260103    1.012631    1.946139    ( 0.0000,  0.0000,  0.0000)
  12 Li     1.797953    5.085745    3.935334    ( 0.0000,  0.0000,  0.0000)
  13 Li    -0.002554    2.043549    3.933710    ( 0.0000,  0.0000,  0.0000)
  14 Li     3.509507    2.035818    4.011335    ( 0.0000,  0.0000,  0.0000)
  15 Li     5.215580    5.085507    3.930529    ( 0.0000,  0.0000,  0.0000)
  16 Li     1.747309    3.075877    5.914020    ( 0.0000,  0.0000,  0.0000)
  17 Li     0.000036    0.032817    5.797028    ( 0.0000,  0.0000,  0.0000)
  18 Li     3.506530    0.030459    5.961335    ( 0.0000,  0.0000,  0.0000)
  19 Li     5.266265    3.075251    5.916040    ( 0.0000,  0.0000,  0.0000)
  20 Li     1.747670    1.042275    5.928314    ( 0.0000,  0.0000,  0.0000)
  21 Li     0.000110    4.085228    5.802223    ( 0.0000,  0.0000,  0.0000)
  22 Li     3.506549    4.091770    5.932780    ( 0.0000,  0.0000,  0.0000)
  23 Li     5.265960    1.042897    5.930966    ( 0.0000,  0.0000,  0.0000)
  24 Li     1.623817    5.089502    7.915682    ( 0.0000,  0.0000,  0.0000)
  25 Li     0.009865    2.070639    7.820783    ( 0.0000,  0.0000,  0.0000)
  26 Li     3.497392    2.117016    7.888115    ( 0.0000,  0.0000,  0.0000)
  27 Li     5.386140    5.088645    7.904030    ( 0.0000,  0.0000,  0.0000)
  28 Li     1.730961    3.104485    9.772728    ( 0.0000,  0.0000,  0.0000)
  29 Li    -0.003300    0.103982   10.420364    ( 0.0000,  0.0000,  0.0000)
  30 Li     3.508793    0.032455    9.852144    ( 0.0000,  0.0000,  0.0000)
  31 Li     5.284322    3.104194    9.743660    ( 0.0000,  0.0000,  0.0000)
  32 Li     1.712063    1.039381    9.731436    ( 0.0000,  0.0000,  0.0000)
  33 Li    -0.002285    4.077600   10.296190    ( 0.0000,  0.0000,  0.0000)
  34 Li     3.509982    4.121955   10.080101    ( 0.0000,  0.0000,  0.0000)
  35 Li     5.304089    1.039126    9.701420    ( 0.0000,  0.0000,  0.0000)
  36 N      1.753389    5.061910    1.929076    ( 0.0000,  0.0000,  0.0000)
  37 N      0.000000    2.024989    1.929076    ( 0.0000,  0.0000,  0.0000)
  38 N      3.506756    2.024989    1.929076    ( 0.0000,  0.0000,  0.0000)
  39 N      5.260124    5.061910    1.929076    ( 0.0000,  0.0000,  0.0000)
  40 N      1.744685    5.098969    5.880878    ( 0.0000,  0.0000,  0.0000)
  41 N      0.000294    2.062660    5.857359    ( 0.0000,  0.0000,  0.0000)
  42 N      3.506581    2.065860    5.924876    ( 0.0000,  0.0000,  0.0000)
  43 N      5.268462    5.098929    5.873858    ( 0.0000,  0.0000,  0.0000)
  44 N      1.742595    5.121150    9.887010    ( 0.0000,  0.0000,  0.0000)
  45 N      0.000474    2.083160    9.739041    ( 0.0000,  0.0000,  0.0000)
  46 N      3.508714    2.076642    9.835680    ( 0.0000,  0.0000,  0.0000)
  47 N      5.271138    5.121280    9.884199    ( 0.0000,  0.0000,  0.0000)
  48 Li     3.529553    1.935827   11.698293    ( 0.0000,  0.0000,  0.0000)

Unit cell:
           periodic     x           y           z      points  spacing
  1. axis:    yes    7.013470    0.000000    0.000000    40     0.1753
  2. axis:    yes    0.000000    6.073843    0.000000    32     0.1898
  3. axis:    yes    0.000000    0.000000   29.936001   160     0.1871

  Lengths:   7.013470   6.073843  29.936001
  Angles:   90.000000  90.000000  90.000000

Effective grid spacing dv^(1/3) = 0.1840

                     log10-error:    total        iterations:
           time      wfs    density  energy       fermi  poisson
iter:   1  10:29:16  -2.57         -154.835699    3             
iter:   2  10:29:27  -3.72  -2.51  -154.837708    3             
iter:   3  10:29:39  -4.59  -2.52  -154.836210    3             
iter:   4  10:29:51  -4.22  -2.58  -154.833170    3             
iter:   5  10:30:02  -5.24  -2.81  -154.833682    2             
iter:   6  10:30:14  -4.90  -2.92  -154.832626    2             
iter:   7  10:30:25  -5.66  -3.06  -154.833231    2             
iter:   8  10:30:37  -5.72  -3.26  -154.833084    2             
iter:   9  10:30:48  -6.40  -3.27  -154.833046    2             
iter:  10  10:31:00  -5.80  -3.39  -154.833061    2             
iter:  11  10:31:11  -6.67  -3.57  -154.833066    2             
iter:  12  10:31:23  -7.36  -3.70  -154.833042    2             
iter:  13  10:31:35  -7.30  -3.77  -154.833094    2             
iter:  14  10:31:46  -7.52  -3.89  -154.833043    2             
iter:  15  10:31:58  -7.06  -3.97  -154.833076    2             
iter:  16  10:32:09  -7.58  -4.12  -154.833075    2             
iter:  17  10:32:21  -7.81  -4.32  -154.833057    2             
iter:  18  10:32:32  -9.10  -4.42  -154.833059    2             

Converged after 18 iterations.

Dipole moment: (-0.069555, -2.507438, 5.726858) |e|*Ang

Energy contributions relative to reference atoms: (reference = -25283.807400)

Kinetic:       +178.623383
Potential:     -130.134584
External:        +0.000000
XC:            -202.276631
Entropy (-ST):   -0.021155
Local:           -1.034650
--------------------------
Free energy:   -154.843636
Extrapolated:  -154.833059

Non-local vdW-DF-cx correlation energy: 15.301153
Semilocal GGA_X_LV_RPW86+LDA_C_PW energy: -1088.902474
(Not including atomic contributions)
Fermi level: -0.95496

Showing only first 2 kpts
 Kpt  Band  Eigenvalues  Occupancy
  0    46     -1.27507    0.13333
  0    47     -0.85309    0.00432
  0    48     -0.76058    0.00020
  0    49     -0.29062    0.00000

  1    46     -1.31271    0.13333
  1    47     -1.15576    0.13317
  1    48     -0.89934    0.01805
  1    49     -0.31221    0.00000


No gap

Forces in eV/Ang:
  0 Li    0.00090   -0.00063   -0.10119
  1 Li    0.00013   -0.00063   -0.09979
  2 Li   -0.00013   -0.00046   -0.09053
  3 Li   -0.00093   -0.00063   -0.10196
  4 Li    0.00997   -0.00201    0.05837
  5 Li    0.00101   -0.00214    0.06473
  6 Li   -0.00116    0.03600    0.00543
  7 Li   -0.01031   -0.00151    0.05316
  8 Li    0.00679    0.01541    0.04942
  9 Li    0.00112    0.01346    0.06878
 10 Li   -0.00090   -0.02982    0.01971
 11 Li   -0.00668    0.01498    0.04451
 12 Li   -0.02082   -0.00889   -0.01839
 13 Li    0.00493   -0.00242   -0.12777
 14 Li   -0.00482   -0.00325   -0.43189
 15 Li    0.02137   -0.00843   -0.00102
 16 Li    0.03821   -0.00771    0.01590
 17 Li   -0.00102    0.03604    0.06539
 18 Li    0.00093    0.03820    0.07035
 19 Li   -0.03801   -0.00712    0.01852
 20 Li    0.03906    0.02962    0.03125
 21 Li   -0.00125   -0.01202    0.06043
 22 Li    0.00075   -0.01001    0.04722
 23 Li   -0.03915    0.02861    0.03309
 24 Li   -0.03294   -0.00595    0.03734
 25 Li   -0.00105   -0.00026    0.06328
 26 Li   -0.00243    0.00928    0.03168
 27 Li    0.03586   -0.00523    0.07831
 28 Li   -0.02193    0.02579   -0.07748
 29 Li   -0.00488   -0.00564    0.08889
 30 Li   -0.00852    0.05965    0.01333
 31 Li    0.02390    0.03311   -0.05348
 32 Li   -0.05895    0.00702   -0.07783
 33 Li   -0.00410    0.03422    0.06696
 34 Li   -0.00728   -0.06282    0.16704
 35 Li    0.06299    0.00069   -0.05562
 36 N     0.03340    0.02780   -0.06671
 37 N    -0.00273    0.02104   -0.10317
 38 N     0.00292    0.01684    0.08245
 39 N    -0.03334    0.02733   -0.07847
 40 N     0.02830   -0.00532   -0.01063
 41 N     0.00143   -0.00961   -0.09373
 42 N    -0.00190   -0.01166    0.08349
 43 N    -0.03027   -0.00465    0.00609
 44 N    -0.02015   -0.01147    0.00667
 45 N     0.00273   -0.00067   -0.03856
 46 N    -0.00318    0.00322    0.05451
 47 N     0.02689   -0.00953   -0.05090
 48 Li    0.01518   -0.08460    0.05841

System changes: positions 

Initializing position-dependent things.

Density initialized from wave functions
     .----------------.  
    /|                |  
   / |                |  
  /  |                |  
 *   |                |  
 |   |                |  
 |   |                |  
 |   |                |  
 |   |                |  
 |   |                |  
 |   |                |  
 |   |                |  
 |   |                |  
 |   |                |  
 |   |                |  
 |   |                |  
 |   |                |  
 |   |                |  
 |   |                |  
 |   |                |  
 |   |                |  
 |   |                |  
 |   |                |  
 |   |                |  
 |   |                |  
 |   |   N Li    N    |  
 |   |      Li       Li  
 |   | Li  N    Li    |  
 |N  |LiLi     LiLLi  |  
 |   |    Li          |  
 |Li |   N Li    N    |  
 |  Li      Li        |  
 |N  | Li  N    Li    |  
 |   |Li Li   Li Li   |  
 Li  |    Li          |  
 |   |   N Li    N Li |  
 |  Li      Li        |  
 |N  .-Li--N----Li----.  
 |  / Li Li   Li Li  /   
 Li/      Li        /    
 |/i       Li      /     
 *----------------*      

Positions:
   0 Li     1.753389    5.061850    0.000000    ( 0.0000,  0.0000,  0.0000)
   1 Li     0.000000    2.024928    0.000000    ( 0.0000,  0.0000,  0.0000)
   2 Li     3.506756    2.024928    0.000000    ( 0.0000,  0.0000,  0.0000)
   3 Li     5.260124    5.061850    0.000000    ( 0.0000,  0.0000,  0.0000)
   4 Li     1.753389    3.037256    1.946139    ( 0.0000,  0.0000,  0.0000)
   5 Li     0.000000    0.000334    1.946139    ( 0.0000,  0.0000,  0.0000)
   6 Li     3.506756    0.000334    1.946139    ( 0.0000,  0.0000,  0.0000)
   7 Li     5.260124    3.037256    1.946139    ( 0.0000,  0.0000,  0.0000)
   8 Li     1.753367    1.012631    1.946139    ( 0.0000,  0.0000,  0.0000)
   9 Li     0.000000    4.049553    1.946139    ( 0.0000,  0.0000,  0.0000)
  10 Li     3.506735    4.049553    1.946139    ( 0.0000,  0.0000,  0.0000)
  11 Li     5.260103    1.012631    1.946139    ( 0.0000,  0.0000,  0.0000)
  12 Li     1.806760    5.090629    3.937145    ( 0.0000,  0.0000,  0.0000)
  13 Li    -0.002930    2.047549    3.932010    ( 0.0000,  0.0000,  0.0000)
  14 Li     3.509940    2.038054    4.009126    ( 0.0000,  0.0000,  0.0000)
  15 Li     5.206797    5.090360    3.932318    ( 0.0000,  0.0000,  0.0000)
  16 Li     1.744617    3.076318    5.911351    ( 0.0000,  0.0000,  0.0000)
  17 Li     0.000095    0.034252    5.800037    ( 0.0000,  0.0000,  0.0000)
  18 Li     3.506426    0.029272    5.972999    ( 0.0000,  0.0000,  0.0000)
  19 Li     5.268918    3.075610    5.912474    ( 0.0000,  0.0000,  0.0000)
  20 Li     1.744968    1.042247    5.926714    ( 0.0000,  0.0000,  0.0000)
  21 Li     0.000174    4.084571    5.806181    ( 0.0000,  0.0000,  0.0000)
  22 Li     3.506440    4.093451    5.941882    ( 0.0000,  0.0000,  0.0000)
  23 Li     5.268610    1.042945    5.928453    ( 0.0000,  0.0000,  0.0000)
  24 Li     1.634419    5.089149    7.923673    ( 0.0000,  0.0000,  0.0000)
  25 Li     0.009651    2.072405    7.819801    ( 0.0000,  0.0000,  0.0000)
  26 Li     3.497758    2.119217    7.887992    ( 0.0000,  0.0000,  0.0000)
  27 Li     5.374813    5.088331    7.915828    ( 0.0000,  0.0000,  0.0000)
  28 Li     1.732485    3.105809    9.763356    ( 0.0000,  0.0000,  0.0000)
  29 Li    -0.003515    0.108853   10.434619    ( 0.0000,  0.0000,  0.0000)
  30 Li     3.508401    0.032783    9.864715    ( 0.0000,  0.0000,  0.0000)
  31 Li     5.282765    3.105998    9.735255    ( 0.0000,  0.0000,  0.0000)
  32 Li     1.711107    1.039646    9.720951    ( 0.0000,  0.0000,  0.0000)
  33 Li    -0.002515    4.077708   10.303879    ( 0.0000,  0.0000,  0.0000)
  34 Li     3.509720    4.121310   10.113876    ( 0.0000,  0.0000,  0.0000)
  35 Li     5.305142    1.038949    9.692025    ( 0.0000,  0.0000,  0.0000)
  36 N      1.753389    5.061910    1.929076    ( 0.0000,  0.0000,  0.0000)
  37 N      0.000000    2.024989    1.929076    ( 0.0000,  0.0000,  0.0000)
  38 N      3.506756    2.024989    1.929076    ( 0.0000,  0.0000,  0.0000)
  39 N      5.260124    5.061910    1.929076    ( 0.0000,  0.0000,  0.0000)
  40 N      1.750588    5.098608    5.885267    ( 0.0000,  0.0000,  0.0000)
  41 N      0.000174    2.062287    5.852167    ( 0.0000,  0.0000,  0.0000)
  42 N      3.506725    2.065452    5.933735    ( 0.0000,  0.0000,  0.0000)
  43 N      5.262382    5.098586    5.877443    ( 0.0000,  0.0000,  0.0000)
  44 N      1.744110    5.121363    9.895806    ( 0.0000,  0.0000,  0.0000)
  45 N      0.000381    2.084045    9.728985    ( 0.0000,  0.0000,  0.0000)
  46 N      3.508467    2.077632    9.821764    ( 0.0000,  0.0000,  0.0000)
  47 N      5.269332    5.121586    9.898224    ( 0.0000,  0.0000,  0.0000)
  48 Li     3.531999    1.923594   11.693619    ( 0.0000,  0.0000,  0.0000)

Unit cell:
           periodic     x           y           z      points  spacing
  1. axis:    yes    7.013470    0.000000    0.000000    40     0.1753
  2. axis:    yes    0.000000    6.073843    0.000000    32     0.1898
  3. axis:    yes    0.000000    0.000000   29.936001   160     0.1871

  Lengths:   7.013470   6.073843  29.936001
  Angles:   90.000000  90.000000  90.000000

Effective grid spacing dv^(1/3) = 0.1840

                     log10-error:    total        iterations:
           time      wfs    density  energy       fermi  poisson
iter:   1  10:32:55  -2.97         -154.844405    3             
iter:   2  10:33:07  -4.11  -2.62  -154.847102    3             
iter:   3  10:33:19  -5.04  -2.65  -154.845583    3             
iter:   4  10:33:30  -4.52  -2.75  -154.843291    3             
iter:   5  10:33:42  -5.21  -2.73  -154.845337    3             
iter:   6  10:33:53  -5.38  -2.95  -154.842991    3             
iter:   7  10:34:05  -5.67  -2.92  -154.843985    3             
iter:   8  10:34:16  -6.29  -3.36  -154.843588    2             
iter:   9  10:34:28  -7.26  -3.48  -154.843587    2             
iter:  10  10:34:39  -6.21  -3.50  -154.843705    2             
iter:  11  10:34:51  -6.70  -3.72  -154.843612    2             
iter:  12  10:35:03  -7.25  -3.84  -154.843663    2             
iter:  13  10:35:14  -8.50  -3.96  -154.843658    2             
iter:  14  10:35:26  -6.62  -3.95  -154.843674    2             
iter:  15  10:35:37  -7.43  -3.93  -154.843682    2             
iter:  16  10:35:49  -7.79  -4.06  -154.843672    2             
iter:  17  10:36:00  -7.82  -4.20  -154.843665    1             
iter:  18  10:36:12  -7.69  -4.13  -154.843658    2             
iter:  19  10:36:23  -7.85  -4.35  -154.843662    2             
iter:  20  10:36:35  -8.30  -4.46  -154.843653    2             

Converged after 20 iterations.

Dipole moment: (-0.044680, -2.537152, 5.726073) |e|*Ang

Energy contributions relative to reference atoms: (reference = -25283.807400)

Kinetic:       +178.256519
Potential:     -129.888583
External:        +0.000000
XC:            -202.166040
Entropy (-ST):   -0.020927
Local:           -1.035086
--------------------------
Free energy:   -154.854116
Extrapolated:  -154.843653

Non-local vdW-DF-cx correlation energy: 15.299055
Semilocal GGA_X_LV_RPW86+LDA_C_PW energy: -1088.817731
(Not including atomic contributions)
Fermi level: -0.95580

Showing only first 2 kpts
 Kpt  Band  Eigenvalues  Occupancy
  0    46     -1.28370    0.13333
  0    47     -0.85186    0.00404
  0    48     -0.76168    0.00021
  0    49     -0.29143    0.00000

  1    46     -1.31155    0.13333
  1    47     -1.15203    0.13314
  1    48     -0.90045    0.01820
  1    49     -0.31328    0.00000


No gap

Forces in eV/Ang:
  0 Li    0.00077   -0.00073   -0.10087
  1 Li    0.00011   -0.00073   -0.09977
  2 Li   -0.00011   -0.00055   -0.09096
  3 Li   -0.00079   -0.00074   -0.10165
  4 Li    0.00878    0.00018    0.05880
  5 Li    0.00099   -0.00344    0.07135
  6 Li   -0.00116    0.03776   -0.00347
  7 Li   -0.00913    0.00093    0.05293
  8 Li    0.00478    0.01598    0.04811
  9 Li    0.00111    0.01732    0.07552
 10 Li   -0.00090   -0.03014    0.01432
 11 Li   -0.00466    0.01532    0.04260
 12 Li   -0.03692   -0.01777   -0.00922
 13 Li    0.00651   -0.00956   -0.13698
 14 Li   -0.00666   -0.00647   -0.36738
 15 Li    0.03747   -0.01722    0.00563
 16 Li    0.07672   -0.01242    0.01852
 17 Li   -0.00266   -0.00240    0.06865
 18 Li    0.00208    0.07624    0.06690
 19 Li   -0.07631   -0.00890    0.02364
 20 Li    0.07732    0.03231    0.03509
 21 Li   -0.00297    0.02438    0.06270
 22 Li    0.00195   -0.04904    0.04289
 23 Li   -0.07712    0.02855    0.03920
 24 Li   -0.04912   -0.00790    0.01822
 25 Li   -0.00129   -0.00137    0.00227
 26 Li   -0.00273    0.01057    0.00058
 27 Li    0.05410   -0.00723    0.04523
 28 Li   -0.02623    0.03093   -0.08552
 29 Li   -0.00213   -0.00367    0.08852
 30 Li   -0.00748    0.04904   -0.00985
 31 Li    0.02465    0.03379   -0.05877
 32 Li   -0.06541   -0.00007   -0.08262
 33 Li   -0.00056    0.02455    0.07012
 34 Li   -0.00692   -0.05677    0.15553
 35 Li    0.06584   -0.00235   -0.05897
 36 N     0.04121    0.03044   -0.06108
 37 N    -0.00300    0.02248   -0.10960
 38 N     0.00320    0.01703    0.08178
 39 N    -0.04112    0.02987   -0.07310
 40 N    -0.04941    0.00093   -0.00891
 41 N     0.00294   -0.00273   -0.06836
 42 N    -0.00343   -0.00590   -0.01390
 43 N     0.04819    0.00144    0.02309
 44 N    -0.03284   -0.00019    0.00605
 45 N     0.00084    0.00410    0.02935
 46 N     0.00118   -0.00732    0.17503
 47 N     0.03591    0.00265   -0.07312
 48 Li    0.01437   -0.08777    0.01566

System changes: positions 

Initializing position-dependent things.

Density initialized from wave functions
     .----------------.  
    /|                |  
   / |                |  
  /  |                |  
 *   |                |  
 |   |                |  
 |   |                |  
 |   |                |  
 |   |                |  
 |   |                |  
 |   |                |  
 |   |                |  
 |   |                |  
 |   |                |  
 |   |                |  
 |   |                |  
 |   |                |  
 |   |                |  
 |   |                |  
 |   |                |  
 |   |                |  
 |   |                |  
 |   |                |  
 |   |                |  
 |   |                |  
 |   |   N Li    N    |  
 |   |      Li       Li  
 |   | Li       Li    |  
 |N  |LiLi N   LiLLi  |  
 |   |    Li          |  
 |Li |   N Li    N    |  
 |  Li      Li        |  
 |N  | Li  N    Li    |  
 |   |Li Li   Li Li   |  
 Li  |    Li          |  
 |   |   N Li    N Li |  
 |  Li      Li        |  
 |N  .-Li--N----Li----.  
 |  / Li Li   Li Li  /   
 Li/      Li        /    
 |/i       Li      /     
 *----------------*      

Positions:
   0 Li     1.753389    5.061850    0.000000    ( 0.0000,  0.0000,  0.0000)
   1 Li     0.000000    2.024928    0.000000    ( 0.0000,  0.0000,  0.0000)
   2 Li     3.506756    2.024928    0.000000    ( 0.0000,  0.0000,  0.0000)
   3 Li     5.260124    5.061850    0.000000    ( 0.0000,  0.0000,  0.0000)
   4 Li     1.753389    3.037256    1.946139    ( 0.0000,  0.0000,  0.0000)
   5 Li     0.000000    0.000334    1.946139    ( 0.0000,  0.0000,  0.0000)
   6 Li     3.506756    0.000334    1.946139    ( 0.0000,  0.0000,  0.0000)
   7 Li     5.260124    3.037256    1.946139    ( 0.0000,  0.0000,  0.0000)
   8 Li     1.753367    1.012631    1.946139    ( 0.0000,  0.0000,  0.0000)
   9 Li     0.000000    4.049553    1.946139    ( 0.0000,  0.0000,  0.0000)
  10 Li     3.506735    4.049553    1.946139    ( 0.0000,  0.0000,  0.0000)
  11 Li     5.260103    1.012631    1.946139    ( 0.0000,  0.0000,  0.0000)
  12 Li     1.813230    5.094328    3.938142    ( 0.0000,  0.0000,  0.0000)
  13 Li    -0.003067    2.050731    3.926665    ( 0.0000,  0.0000,  0.0000)
  14 Li     3.510125    2.039786    3.994275    ( 0.0000,  0.0000,  0.0000)
  15 Li     5.200365    5.094049    3.933873    ( 0.0000,  0.0000,  0.0000)
  16 Li     1.743523    3.076476    5.909579    ( 0.0000,  0.0000,  0.0000)
  17 Li     0.000113    0.036667    5.804691    ( 0.0000,  0.0000,  0.0000)
  18 Li     3.506374    0.029370    5.984873    ( 0.0000,  0.0000,  0.0000)
  19 Li     5.269978    3.075712    5.910077    ( 0.0000,  0.0000,  0.0000)
  20 Li     1.743899    1.043119    5.926342    ( 0.0000,  0.0000,  0.0000)
  21 Li     0.000188    4.083571    5.811455    ( 0.0000,  0.0000,  0.0000)
  22 Li     3.506378    4.094665    5.950864    ( 0.0000,  0.0000,  0.0000)
  23 Li     5.269625    1.043857    5.927416    ( 0.0000,  0.0000,  0.0000)
  24 Li     1.641974    5.088654    7.931409    ( 0.0000,  0.0000,  0.0000)
  25 Li     0.009425    2.073857    7.820577    ( 0.0000,  0.0000,  0.0000)
  26 Li     3.497993    2.121352    7.888950    ( 0.0000,  0.0000,  0.0000)
  27 Li     5.366756    5.087891    7.927964    ( 0.0000,  0.0000,  0.0000)
  28 Li     1.733109    3.107795    9.753091    ( 0.0000,  0.0000,  0.0000)
  29 Li    -0.003842    0.112799   10.449356    ( 0.0000,  0.0000,  0.0000)
  30 Li     3.507813    0.034823    9.875441    ( 0.0000,  0.0000,  0.0000)
  31 Li     5.282162    3.108598    9.726581    ( 0.0000,  0.0000,  0.0000)
  32 Li     1.708409    1.040029    9.709789    ( 0.0000,  0.0000,  0.0000)
  33 Li    -0.002828    4.078793   10.312479    ( 0.0000,  0.0000,  0.0000)
  34 Li     3.509274    4.118837   10.147331    ( 0.0000,  0.0000,  0.0000)
  35 Li     5.308030    1.038787    9.682481    ( 0.0000,  0.0000,  0.0000)
  36 N      1.753389    5.061910    1.929076    ( 0.0000,  0.0000,  0.0000)
  37 N      0.000000    2.024989    1.929076    ( 0.0000,  0.0000,  0.0000)
  38 N      3.506756    2.024989    1.929076    ( 0.0000,  0.0000,  0.0000)
  39 N      5.260124    5.061910    1.929076    ( 0.0000,  0.0000,  0.0000)
  40 N      1.756217    5.098192    5.888661    ( 0.0000,  0.0000,  0.0000)
  41 N      0.000121    2.061747    5.845167    ( 0.0000,  0.0000,  0.0000)
  42 N      3.506792    2.064803    5.942385    ( 0.0000,  0.0000,  0.0000)
  43 N      5.256543    5.098203    5.880710    ( 0.0000,  0.0000,  0.0000)
  44 N      1.744816    5.121228    9.903129    ( 0.0000,  0.0000,  0.0000)
  45 N      0.000374    2.084808    9.719877    ( 0.0000,  0.0000,  0.0000)
  46 N      3.508203    2.078503    9.811249    ( 0.0000,  0.0000,  0.0000)
  47 N      5.268554    5.121590    9.907991    ( 0.0000,  0.0000,  0.0000)
  48 Li     3.534513    1.910599   11.691922    ( 0.0000,  0.0000,  0.0000)

Unit cell:
           periodic     x           y           z      points  spacing
  1. axis:    yes    7.013470    0.000000    0.000000    40     0.1753
  2. axis:    yes    0.000000    6.073843    0.000000    32     0.1898
  3. axis:    yes    0.000000    0.000000   29.936001   160     0.1871

  Lengths:   7.013470   6.073843  29.936001
  Angles:   90.000000  90.000000  90.000000

Effective grid spacing dv^(1/3) = 0.1840

                     log10-error:    total        iterations:
           time      wfs    density  energy       fermi  poisson
iter:   1  10:36:58  -2.97         -154.856898    3             
iter:   2  10:37:10  -4.05  -2.48  -154.860842    4             
iter:   3  10:37:21  -5.05  -2.56  -154.858041    3             
iter:   4  10:37:33  -4.23  -2.68  -154.863436    3             
iter:   5  10:37:44  -4.73  -2.27  -154.857209    4             
iter:   6  10:37:56  -6.04  -2.90  -154.855682    3             
iter:   7  10:38:07  -5.47  -3.11  -154.855965    2             
iter:   8  10:38:19  -5.55  -3.18  -154.858257    3             
iter:   9  10:38:30  -6.68  -2.88  -154.857179    3             
iter:  10  10:38:42  -5.46  -3.00  -154.854713    3             
iter:  11  10:38:53  -6.07  -3.18  -154.856049    3             
iter:  12  10:39:05  -6.76  -3.26  -154.855464    2             
iter:  13  10:39:16  -6.48  -3.60  -154.855019    2             
iter:  14  10:39:28  -6.86  -3.65  -154.855483    2             
iter:  15  10:39:40  -7.43  -3.68  -154.855199    2             
iter:  16  10:39:51  -8.13  -4.12  -154.855218    2             

Converged after 16 iterations.

Dipole moment: (-0.030151, -2.597416, 5.714387) |e|*Ang

Energy contributions relative to reference atoms: (reference = -25283.807400)

Kinetic:       +177.826494
Potential:     -129.595619
External:        +0.000000
XC:            -202.036851
Entropy (-ST):   -0.020715
Local:           -1.038885
--------------------------
Free energy:   -154.865576
Extrapolated:  -154.855218

Non-local vdW-DF-cx correlation energy: 15.296188
Semilocal GGA_X_LV_RPW86+LDA_C_PW energy: -1088.717594
(Not including atomic contributions)
Fermi level: -0.95575

Showing only first 2 kpts
 Kpt  Band  Eigenvalues  Occupancy
  0    46     -1.29160    0.13333
  0    47     -0.85089    0.00393
  0    48     -0.76058    0.00020
  0    49     -0.29107    0.00000

  1    46     -1.31184    0.13333
  1    47     -1.14852    0.13312
  1    48     -0.89936    0.01766
[...]
           periodic     x           y           z      points  spacing
  1. axis:    yes    7.013470    0.000000    0.000000    40     0.1753
  2. axis:    yes    0.000000    6.073843    0.000000    32     0.1898
  3. axis:    yes    0.000000    0.000000   29.936001   160     0.1871

  Lengths:   7.013470   6.073843  29.936001
  Angles:   90.000000  90.000000  90.000000

Effective grid spacing dv^(1/3) = 0.1840

                     log10-error:    total        iterations:
           time      wfs    density  energy       fermi  poisson
iter:   1  11:22:56  -1.81         -155.120645    4             
iter:   2  11:23:07  -2.76  -1.86  -155.175685    5             
iter:   3  11:23:19  -3.69  -1.74  -155.070226    4             
iter:   4  11:23:30  -3.76  -2.11  -155.047381    4             
iter:   5  11:23:42  -3.55  -2.31  -155.039319    4             
iter:   6  11:23:53  -4.36  -2.54  -155.037650    3             
iter:   7  11:24:05  -4.12  -2.70  -155.038074    3             
iter:   8  11:24:16  -5.29  -2.58  -155.037652    3             
iter:   9  11:24:28  -3.99  -2.62  -155.037278    4             
iter:  10  11:24:39  -4.82  -2.85  -155.037381    2             
iter:  11  11:24:51  -4.74  -2.98  -155.036757    4             
iter:  12  11:25:02  -5.15  -3.27  -155.036823    3             
iter:  13  11:25:14  -5.43  -3.29  -155.036721    3             
iter:  14  11:25:25  -6.38  -3.40  -155.036779    3             
iter:  15  11:25:37  -6.19  -3.48  -155.036667    3             
iter:  16  11:25:48  -5.86  -3.64  -155.036761    3             
iter:  17  11:26:00  -6.12  -3.79  -155.036743    3             
iter:  18  11:26:11  -7.74  -3.93  -155.036744    2             
iter:  19  11:26:23  -6.32  -3.98  -155.036753    3             
iter:  20  11:26:34  -6.56  -3.97  -155.036731    3             
iter:  21  11:26:46  -8.10  -4.25  -155.036748    2             

Converged after 21 iterations.

Dipole moment: (0.449985, -3.016534, 5.393277) |e|*Ang

Energy contributions relative to reference atoms: (reference = -25283.807400)

Kinetic:       +167.451119
Potential:     -122.513035
External:        +0.000000
XC:            -198.938242
Entropy (-ST):   -0.020633
Local:           -1.026272
--------------------------
Free energy:   -155.047064
Extrapolated:  -155.036748

Non-local vdW-DF-cx correlation energy: 15.224897
Semilocal GGA_X_LV_RPW86+LDA_C_PW energy: -1086.390439
(Not including atomic contributions)
Fermi level: -0.83666

Showing only first 2 kpts
 Kpt  Band  Eigenvalues  Occupancy
  0    46     -1.37507    0.13333
  0    47     -0.76445    0.01102
  0    48     -0.61489    0.00008
  0    49     -0.25449    0.00000

  1    46     -1.39582    0.13333
  1    47     -1.05971    0.13325
  1    48     -0.74570    0.00613
  1    49     -0.22898    0.00000


No gap

Forces in eV/Ang:
  0 Li    0.00062   -0.00054   -0.11116
  1 Li   -0.00012   -0.00021   -0.12352
  2 Li    0.00013   -0.00001   -0.12002
  3 Li   -0.00061   -0.00054   -0.10949
  4 Li    0.00145    0.01839    0.03544
  5 Li   -0.00268   -0.01056    0.03999
  6 Li    0.00218   -0.01333    0.03790
  7 Li   -0.00169    0.02051    0.04172
  8 Li   -0.00188   -0.00795    0.01776
  9 Li   -0.00251    0.01421    0.05654
 10 Li    0.00238    0.01092    0.06031
 11 Li    0.00206   -0.01012    0.02382
 12 Li    0.05296    0.04233   -0.08378
 13 Li   -0.01910    0.01869   -0.11113
 14 Li    0.01964    0.00909    0.02337
 15 Li   -0.05159    0.03971   -0.14195
 16 Li    0.01664   -0.01176    0.13150
 17 Li   -0.00852    0.05092   -0.02195
 18 Li    0.00613   -0.05033    0.10108
 19 Li   -0.01566   -0.00305    0.08595
 20 Li    0.01984   -0.03249    0.10415
 21 Li   -0.00992   -0.08245   -0.03744
 22 Li    0.00724    0.03213    0.11323
 23 Li   -0.01971   -0.03893    0.06056
 24 Li    0.05697    0.03961    0.00867
 25 Li    0.02680   -0.00870   -0.35868
 26 Li   -0.01837    0.02029    0.26979
 27 Li   -0.06099    0.03052    0.03652
 28 Li   -0.01116    0.01635    0.09088
 29 Li   -0.00348   -0.10958   -0.16627
 30 Li    0.00224   -0.21732   -0.14530
 31 Li   -0.00357   -0.01922    0.09591
 32 Li    0.00872    0.01460    0.14485
 33 Li    0.00922    0.02950   -0.09868
 34 Li   -0.00050    0.09236   -0.08866
 35 Li    0.00253    0.04180    0.12567
 36 N     0.00378    0.02951    0.11280
 37 N     0.00473    0.00672   -0.13493
 38 N    -0.00458    0.00476    0.01903
 39 N    -0.00472    0.02993    0.11793
 40 N     0.00824    0.01232   -0.03418
 41 N     0.00705    0.03664   -0.06889
 42 N    -0.00116    0.00121   -0.46586
 43 N    -0.01046    0.01065    0.06909
 44 N     0.04273    0.09492    0.18603
 45 N    -0.00495    0.02058    0.35796
 46 N     0.02112   -0.05485    0.00255
 47 N    -0.06041    0.11808    0.17456
 48 Li   -0.00712   -0.17296   -0.35384

System changes: positions 

Initializing position-dependent things.

Density initialized from wave functions
     .----------------.  
    /|                |  
   / |                |  
  /  |                |  
 *   |                |  
 |   |                |  
 |   |                |  
 |   |                |  
 |   |                |  
 |   |                |  
 |   |                |  
 |   |                |  
 |   |                |  
 |   |                |  
 |   |                |  
 |   |                |  
 |   |                |  
 |   |                |  
 |   |                |  
 |   |                |  
 |   |                |  
 |   |                |  
 |   |                |  
 |   |                |  
 |   |                |  
 |   |   N  Lii  N   Li  
 |   |     Li         |  
 |   | Li  N    Li    |  
 |   |LiLi     Li Li  |  
 |   |                |  
 |   |   N Li    N Li |  
 |  Li      Li        |  
 |   | Li  N    Li N  |  
 |   |Li LLi  Li Li   |  
 Li  |                |  
 |Li |   N Li    N    |  
 |  Li      Li        |  
 |N  .-Li--N----Li----.  
 |  / Li Li   Li Li  /   
 Li/      Li        /    
 |/i       Li      /     
 *----------------*      

Positions:
   0 Li     1.753389    5.061850    0.000000    ( 0.0000,  0.0000,  0.0000)
   1 Li     0.000000    2.024928    0.000000    ( 0.0000,  0.0000,  0.0000)
   2 Li     3.506756    2.024928    0.000000    ( 0.0000,  0.0000,  0.0000)
   3 Li     5.260124    5.061850    0.000000    ( 0.0000,  0.0000,  0.0000)
   4 Li     1.753389    3.037256    1.946139    ( 0.0000,  0.0000,  0.0000)
   5 Li     0.000000    0.000334    1.946139    ( 0.0000,  0.0000,  0.0000)
   6 Li     3.506756    0.000334    1.946139    ( 0.0000,  0.0000,  0.0000)
   7 Li     5.260124    3.037256    1.946139    ( 0.0000,  0.0000,  0.0000)
   8 Li     1.753367    1.012631    1.946139    ( 0.0000,  0.0000,  0.0000)
   9 Li     0.000000    4.049553    1.946139    ( 0.0000,  0.0000,  0.0000)
  10 Li     3.506735    4.049553    1.946139    ( 0.0000,  0.0000,  0.0000)
  11 Li     5.260103    1.012631    1.946139    ( 0.0000,  0.0000,  0.0000)
  12 Li     1.744970    5.082030    3.988251    ( 0.0000,  0.0000,  0.0000)
  13 Li     0.000569    2.027091    3.905779    ( 0.0000,  0.0000,  0.0000)
  14 Li     3.505659    2.017999    3.959361    ( 0.0000,  0.0000,  0.0000)
  15 Li     5.266831    5.082110    3.993089    ( 0.0000,  0.0000,  0.0000)
  16 Li     1.754840    3.094140    5.784783    ( 0.0000,  0.0000,  0.0000)
  17 Li     0.000891    0.052042    5.964922    ( 0.0000,  0.0000,  0.0000)
  18 Li     3.504669    0.063898    6.137274    ( 0.0000,  0.0000,  0.0000)
  19 Li     5.257451    3.093889    5.798460    ( 0.0000,  0.0000,  0.0000)
  20 Li     1.758322    1.061992    5.827677    ( 0.0000,  0.0000,  0.0000)
  21 Li     0.001288    4.103828    5.972543    ( 0.0000,  0.0000,  0.0000)
  22 Li     3.504658    4.106816    6.037728    ( 0.0000,  0.0000,  0.0000)
  23 Li     5.254059    1.061792    5.840012    ( 0.0000,  0.0000,  0.0000)
  24 Li     1.529164    5.086966    8.017527    ( 0.0000,  0.0000,  0.0000)
  25 Li    -0.003117    2.109867    7.780310    ( 0.0000,  0.0000,  0.0000)
  26 Li     3.506216    2.170639    7.857228    ( 0.0000,  0.0000,  0.0000)
  27 Li     5.486452    5.083454    8.015528    ( 0.0000,  0.0000,  0.0000)
  28 Li     1.803034    3.178262    9.651263    ( 0.0000,  0.0000,  0.0000)
  29 Li    -0.003198    0.204281   10.681429    ( 0.0000,  0.0000,  0.0000)
  30 Li     3.502015   -0.027819    9.680911    ( 0.0000,  0.0000,  0.0000)
  31 Li     5.206928    3.182979    9.653356    ( 0.0000,  0.0000,  0.0000)
  32 Li     1.668499    1.066906    9.660141    ( 0.0000,  0.0000,  0.0000)
  33 Li    -0.001705    4.035286   10.503445    ( 0.0000,  0.0000,  0.0000)
  34 Li     3.499114    4.126616   10.707673    ( 0.0000,  0.0000,  0.0000)
  35 Li     5.344435    1.060419    9.634307    ( 0.0000,  0.0000,  0.0000)
  36 N      1.753389    5.061910    1.929076    ( 0.0000,  0.0000,  0.0000)
  37 N      0.000000    2.024989    1.929076    ( 0.0000,  0.0000,  0.0000)
  38 N      3.506756    2.024989    1.929076    ( 0.0000,  0.0000,  0.0000)
  39 N      5.260124    5.061910    1.929076    ( 0.0000,  0.0000,  0.0000)
  40 N      1.732070    5.112538    5.973488    ( 0.0000,  0.0000,  0.0000)
  41 N     -0.000889    2.076143    5.811219    ( 0.0000,  0.0000,  0.0000)
  42 N      3.505491    2.083090    5.928076    ( 0.0000,  0.0000,  0.0000)
  43 N      5.280790    5.112647    5.966455    ( 0.0000,  0.0000,  0.0000)
  44 N      1.728828    5.152850   10.026437    ( 0.0000,  0.0000,  0.0000)
  45 N     -0.004048    2.149032    9.643478    ( 0.0000,  0.0000,  0.0000)
  46 N      3.506525    2.067116    9.860318    ( 0.0000,  0.0000,  0.0000)
  47 N      5.277603    5.156228   10.039334    ( 0.0000,  0.0000,  0.0000)
  48 Li     3.575656    1.433458   11.657245    ( 0.0000,  0.0000,  0.0000)

Unit cell:
           periodic     x           y           z      points  spacing
  1. axis:    yes    7.013470    0.000000    0.000000    40     0.1753
  2. axis:    yes    0.000000    6.073843    0.000000    32     0.1898
  3. axis:    yes    0.000000    0.000000   29.936001   160     0.1871

  Lengths:   7.013470   6.073843  29.936001
  Angles:   90.000000  90.000000  90.000000

Effective grid spacing dv^(1/3) = 0.1840

                     log10-error:    total        iterations:
           time      wfs    density  energy       fermi  poisson
iter:   1  11:27:09  -2.86         -155.071106    4             
iter:   2  11:27:21  -4.04  -2.38  -155.065967    3             
iter:   3  11:27:32  -4.89  -2.41  -155.064997    3             
iter:   4  11:27:44  -3.92  -2.49  -155.059297    3             
iter:   5  11:27:55  -4.97  -2.85  -155.059603    3             
iter:   6  11:28:07  -5.13  -2.96  -155.059056    3             
iter:   7  11:28:19  -5.30  -3.19  -155.059111    3             
iter:   8  11:28:30  -5.45  -3.16  -155.058958    3             
iter:   9  11:28:42  -6.21  -3.56  -155.058949    2             
iter:  10  11:28:53  -6.70  -3.64  -155.058909    3             
iter:  11  11:29:05  -6.74  -3.77  -155.058918    2             
iter:  12  11:29:16  -7.73  -3.89  -155.058922    2             
iter:  13  11:29:28  -7.42  -3.94  -155.058925    2             
iter:  14  11:29:39  -7.20  -4.07  -155.058940    2             
iter:  15  11:29:51  -7.34  -4.19  -155.058922    2             
iter:  16  11:30:02  -7.65  -4.34  -155.058933    2             
iter:  17  11:30:14  -8.46  -4.45  -155.058929    2             

Converged after 17 iterations.

Dipole moment: (0.445036, -2.897195, 5.398261) |e|*Ang

Energy contributions relative to reference atoms: (reference = -25283.807400)

Kinetic:       +167.888602
Potential:     -122.812674
External:        +0.000000
XC:            -199.102100
Entropy (-ST):   -0.020642
Local:           -1.022436
--------------------------
Free energy:   -155.069250
Extrapolated:  -155.058929

Non-local vdW-DF-cx correlation energy: 15.230567
Semilocal GGA_X_LV_RPW86+LDA_C_PW energy: -1086.526142
(Not including atomic contributions)
Fermi level: -0.85140

Showing only first 2 kpts
 Kpt  Band  Eigenvalues  Occupancy
  0    46     -1.37856    0.13333
  0    47     -0.77521    0.00975
  0    48     -0.63184    0.00009
  0    49     -0.26683    0.00000

  1    46     -1.40453    0.13333
  1    47     -1.07128    0.13325
  1    48     -0.76351    0.00676
  1    49     -0.24369    0.00000


No gap

Forces in eV/Ang:
  0 Li    0.00091   -0.00045   -0.11096
  1 Li   -0.00006   -0.00014   -0.12294
  2 Li    0.00007    0.00003   -0.11720
  3 Li   -0.00089   -0.00045   -0.10971
  4 Li    0.00474    0.01525    0.03959
  5 Li   -0.00204   -0.00929    0.03361
  6 Li    0.00146   -0.01086    0.04286
  7 Li   -0.00501    0.01722    0.04349
  8 Li    0.00189   -0.00598    0.02053
  9 Li   -0.00188    0.01090    0.05207
 10 Li    0.00168    0.00719    0.06572
 11 Li   -0.00173   -0.00797    0.02426
 12 Li    0.05849    0.04390   -0.08177
 13 Li   -0.01570    0.02618   -0.10090
 14 Li    0.01658    0.01338   -0.10286
 15 Li   -0.05665    0.04125   -0.12642
 16 Li   -0.02352   -0.00646    0.14030
 17 Li   -0.00826    0.11574   -0.03792
 18 Li    0.00605   -0.12373    0.10661
 19 Li    0.02348   -0.00320    0.09656
 20 Li   -0.02308   -0.03739    0.11694
 21 Li   -0.01001   -0.13983   -0.05593
 22 Li    0.00701    0.10880    0.11879
 23 Li    0.02207   -0.03806    0.07518
 24 Li    0.06898    0.03460    0.01859
 25 Li    0.02737   -0.01511   -0.24656
 26 Li   -0.01974    0.02557    0.33717
 27 Li   -0.07316    0.02597    0.04727
 28 Li   -0.03904    0.01686    0.05224
 29 Li   -0.00640   -0.12685   -0.13133
 30 Li    0.00063   -0.19347   -0.12061
 31 Li    0.02609   -0.01045    0.06822
 32 Li   -0.00177    0.00193    0.11967
 33 Li    0.00576    0.05352   -0.06170
 34 Li    0.00421    0.09492   -0.00606
 35 Li    0.01532    0.02911    0.10623
 36 N    -0.00210    0.02910    0.10653
 37 N     0.00323    0.00475   -0.12924
 38 N    -0.00312    0.00341    0.05552
 39 N     0.00116    0.02938    0.10765
 40 N     0.11539    0.00957    0.01399
 41 N     0.00415    0.02981   -0.12477
 42 N     0.00250    0.00220   -0.46972
 43 N    -0.11607    0.00752    0.12357
 44 N     0.05724    0.08685    0.11319
 45 N    -0.00129    0.00820    0.30574
 46 N     0.01309    0.00807   -0.13669
 47 N    -0.07486    0.10405    0.08205
 48 Li   -0.00295   -0.21167   -0.22963

System changes: positions 

Initializing position-dependent things.

Density initialized from wave functions
     .----------------.  
    /|                |  
   / |                |  
  /  |                |  
 *   |                |  
 |   |                |  
 |   |                |  
 |   |                |  
 |   |                |  
 |   |                |  
 |   |                |  
 |   |                |  
 |   |                |  
 |   |                |  
 |   |                |  
 |   |                |  
 |   |                |  
 |   |                |  
 |   |                |  
 |   |                |  
 |   |                |  
 |   |                |  
 |   |                |  
 |   |                |  
 |   |                |  
 |   |   N  Lii  N   Li  
 |   |     Li         |  
 |   | Li  N    Li    |  
 |   |LiLi     Li Li  |  
 |   |                |  
 |   |   N Li    N Li |  
 |  Li      Li        |  
 |   | Li  N    Li N  |  
 |   |Li LLi  Li Li   |  
 Li  |                |  
 |   |   N Li    N Li |  
 |  Li      Li        |  
 |N  .-Li--N----Li----.  
 |  / Li Li   Li Li  /   
 Li/      Li        /    
 |/i       Li      /     
 *----------------*      

Positions:
   0 Li     1.753389    5.061850    0.000000    ( 0.0000,  0.0000,  0.0000)
   1 Li     0.000000    2.024928    0.000000    ( 0.0000,  0.0000,  0.0000)
   2 Li     3.506756    2.024928    0.000000    ( 0.0000,  0.0000,  0.0000)
   3 Li     5.260124    5.061850    0.000000    ( 0.0000,  0.0000,  0.0000)
   4 Li     1.753389    3.037256    1.946139    ( 0.0000,  0.0000,  0.0000)
   5 Li     0.000000    0.000334    1.946139    ( 0.0000,  0.0000,  0.0000)
   6 Li     3.506756    0.000334    1.946139    ( 0.0000,  0.0000,  0.0000)
   7 Li     5.260124    3.037256    1.946139    ( 0.0000,  0.0000,  0.0000)
   8 Li     1.753367    1.012631    1.946139    ( 0.0000,  0.0000,  0.0000)
   9 Li     0.000000    4.049553    1.946139    ( 0.0000,  0.0000,  0.0000)
  10 Li     3.506735    4.049553    1.946139    ( 0.0000,  0.0000,  0.0000)
  11 Li     5.260103    1.012631    1.946139    ( 0.0000,  0.0000,  0.0000)
  12 Li     1.742070    5.083392    3.988212    ( 0.0000,  0.0000,  0.0000)
  13 Li    -0.000647    2.025372    3.901360    ( 0.0000,  0.0000,  0.0000)
  14 Li     3.506811    2.015864    3.972362    ( 0.0000,  0.0000,  0.0000)
  15 Li     5.269545    5.083333    3.989568    ( 0.0000,  0.0000,  0.0000)
  16 Li     1.757753    3.094868    5.777898    ( 0.0000,  0.0000,  0.0000)
  17 Li     0.000614    0.050414    5.977210    ( 0.0000,  0.0000,  0.0000)
  18 Li     3.504706    0.068904    6.153499    ( 0.0000,  0.0000,  0.0000)
  19 Li     5.254554    3.095419    5.790055    ( 0.0000,  0.0000,  0.0000)
  20 Li     1.761481    1.062317    5.820573    ( 0.0000,  0.0000,  0.0000)
  21 Li     0.001016    4.106683    5.984393    ( 0.0000,  0.0000,  0.0000)
  22 Li     3.504747    4.104406    6.049614    ( 0.0000,  0.0000,  0.0000)
  23 Li     5.250862    1.061359    5.831398    ( 0.0000,  0.0000,  0.0000)
  24 Li     1.521598    5.089701    8.027396    ( 0.0000,  0.0000,  0.0000)
  25 Li    -0.002701    2.113416    7.762882    ( 0.0000,  0.0000,  0.0000)
  26 Li     3.506077    2.176606    7.859268    ( 0.0000,  0.0000,  0.0000)
  27 Li     5.494301    5.085332    8.027010    ( 0.0000,  0.0000,  0.0000)
  28 Li     1.810809    3.183472    9.652193    ( 0.0000,  0.0000,  0.0000)
  29 Li    -0.003402    0.206342   10.687817    ( 0.0000,  0.0000,  0.0000)
  30 Li     3.501911   -0.045872    9.645583    ( 0.0000,  0.0000,  0.0000)
  31 Li     5.197937    3.187081    9.655379    ( 0.0000,  0.0000,  0.0000)
  32 Li     1.670022    1.072750    9.670671    ( 0.0000,  0.0000,  0.0000)
  33 Li    -0.001192    4.032133   10.512189    ( 0.0000,  0.0000,  0.0000)
  34 Li     3.498402    4.134817   10.748992    ( 0.0000,  0.0000,  0.0000)
  35 Li     5.343375    1.066668    9.641810    ( 0.0000,  0.0000,  0.0000)
  36 N      1.753389    5.061910    1.929076    ( 0.0000,  0.0000,  0.0000)
  37 N      0.000000    2.024989    1.929076    ( 0.0000,  0.0000,  0.0000)
  38 N      3.506756    2.024989    1.929076    ( 0.0000,  0.0000,  0.0000)
  39 N      5.260124    5.061910    1.929076    ( 0.0000,  0.0000,  0.0000)
  40 N      1.724713    5.114411    5.976595    ( 0.0000,  0.0000,  0.0000)
  41 N     -0.000614    2.078713    5.809245    ( 0.0000,  0.0000,  0.0000)
  42 N      3.505276    2.084529    5.914073    ( 0.0000,  0.0000,  0.0000)
  43 N      5.288037    5.114464    5.971926    ( 0.0000,  0.0000,  0.0000)
  44 N      1.729292    5.160078   10.048197    ( 0.0000,  0.0000,  0.0000)
  45 N     -0.004685    2.155474    9.655372    ( 0.0000,  0.0000,  0.0000)
  46 N      3.507504    2.061865    9.868601    ( 0.0000,  0.0000,  0.0000)
  47 N      5.275802    5.164677   10.064287    ( 0.0000,  0.0000,  0.0000)
  48 Li     3.578152    1.378420   11.624743    ( 0.0000,  0.0000,  0.0000)

Unit cell:
           periodic     x           y           z      points  spacing
  1. axis:    yes    7.013470    0.000000    0.000000    40     0.1753
  2. axis:    yes    0.000000    6.073843    0.000000    32     0.1898
  3. axis:    yes    0.000000    0.000000   29.936001   160     0.1871

  Lengths:   7.013470   6.073843  29.936001
  Angles:   90.000000  90.000000  90.000000

Effective grid spacing dv^(1/3) = 0.1840

                     log10-error:    total        iterations:
           time      wfs    density  energy       fermi  poisson
iter:   1  11:30:37  -2.37         -155.128475    3             
iter:   2  11:30:49  -3.46  -2.13  -155.124482    4             
iter:   3  11:31:00  -4.37  -2.15  -155.109283    4             
