
  ___ ___ ___ _ _ _  
 |   |   |_  | | | | 
 | | | | | . | | | | 
 |__ |  _|___|_____|  20.1.0
 |___|_|             

User:   jngwng01@n716020
Date:   Mon Sep  6 19:47:54 2021
Arch:   x86_64
Pid:    12940
Python: 3.8.5
gpaw:   /uls/7/gpaw-20.1.0/lib/python3.8/site-packages/gpaw-20.1.0-py3.8-linux-x86_64.egg/gpaw
_gpaw:  /uls/7/gpaw-20.1.0/lib/python3.8/site-packages/gpaw-20.1.0-py3.8-linux-x86_64.egg/
        _gpaw.cpython-38-x86_64-linux-gnu.so
ase:    /uls/7/gpaw-20.1.0/lib/python3.8/site-packages/ase-3.20.1-py3.8.egg/ase (version 3.20.1)
numpy:  /uls/7/gpaw-20.1.0/lib/python3.8/site-packages/numpy (version 1.19.2)
scipy:  /uls/7/gpaw-20.1.0/lib/python3.8/site-packages/scipy-1.5.2-py3.8-linux-x86_64.egg/scipy (version 1.5.2)
libxc:  4.3.4
units:  Angstrom and eV
cores: 32
OMP_NUM_THREADS: 1

Input parameters:
  convergence: {density: 0.0001,
                eigenstates: 1e-07}
  kpts: [5 5 1]
  mode: {ecut: 500.0,
         gammacentered: False,
         name: pw}
  occupations: {name: fermi-dirac,
                width: 0.05}
  random: True
  xc: PBE

System changes: positions, numbers, cell, pbc, initial_charges, initial_magmoms 

Initialize ...

Li-setup:
  name: Lithium
  id: 830b4218f175192f93f959cfc0aad614
  Z: 3
  valence: 1
  core: 2
  charge: 0.0
  file: /uls/7/gpaw-20.1.0/setups/gpaw-setups-0.9.20000/Li.PBE.gz
  compensation charges: gauss, rc=0.33, lmax=2
  cutoffs: 1.91(filt), 2.55(core),
  valence states:
                energy  radius
    2s(1.00)    -2.874   1.058
    2p(0.00)    -1.090   1.058
    *s          24.337   1.058

  Using partial waves for Li as LCAO basis

N-setup:
  name: Nitrogen
  id: f7500608b86eaa90eef8b1d9a670dc53
  Z: 7
  valence: 5
  core: 2
  charge: 0.0
  file: /uls/7/gpaw-20.1.0/setups/gpaw-setups-0.9.20000/N.PBE.gz
  compensation charges: gauss, rc=0.18, lmax=2
  cutoffs: 1.11(filt), 0.96(core),
  valence states:
                energy  radius
    2s(2.00)   -18.583   0.603
    2p(3.00)    -7.089   0.529
    *s           8.629   0.603
    *p          20.123   0.529
    *d           0.000   0.577

  Using partial waves for N as LCAO basis

Reference energy: -33644.147259

Spin-paired calculation

Occupation numbers:
  Fermi-Dirac: width=0.0500 eV

Convergence criteria:
  Maximum total energy change: 0.0005 eV / electron
  Maximum integral of absolute density change: 0.0001 electrons
  Maximum integral of absolute eigenstate change: 1e-07 eV^2
  Maximum number of iterations: 333

Symmetries present (total): 1

  ( 1  0  0)
  ( 0  1  0)
  ( 0  0  1)

25 k-points: 5 x 5 x 1 Monkhorst-Pack grid
13 k-points in the irreducible part of the Brillouin zone
       k-points in crystal coordinates                weights
   0:     0.00000000    0.00000000    0.00000000          1/25
   1:     0.00000000    0.20000000    0.00000000          2/25
   2:     0.00000000    0.40000000    0.00000000          2/25
   3:     0.20000000   -0.40000000    0.00000000          2/25
   4:     0.20000000   -0.20000000    0.00000000          2/25
   5:     0.20000000    0.00000000    0.00000000          2/25
   6:     0.20000000    0.20000000    0.00000000          2/25
   7:     0.20000000    0.40000000    0.00000000          2/25
   8:     0.40000000   -0.40000000    0.00000000          2/25
   9:     0.40000000   -0.20000000    0.00000000          2/25
          ...
  12:     0.40000000    0.40000000    0.00000000          2/25

Wave functions: Plane wave expansion
  Cutoff energy: 500.000 eV
  Number of coefficients (min, max): 32263, 32394
  Pulay-stress correction: 0.000000 eV/Ang^3 (de/decut=0.000000)
  Using FFTW library
  ScaLapack parameters: grid=1x1, blocksize=None
  Wavefunction extrapolation:
    Improved wavefunction reuse through dual PAW basis 

Eigensolver
   Davidson(niter=2, smin=None, normalize=True) 

Densities:
  Coarse grid: 40*40*160 grid
  Fine grid: 80*80*320 grid
  Total Charge: 0.000000 

Density mixing:
  Method: separate
  Backend: pulay
  Linear mixing parameter: 0.05
  Mixing with 5 old densities
  Damping of long wave oscillations: 50 

Hamiltonian:
  XC and Coulomb potentials evaluated on a 80*80*320 grid
  Using the PBE Exchange-Correlation functional
 

XC parameters: PBE with 2 nearest neighbor stencil

Memory estimate:
  Process memory now: 239.05 MiB
  Calculator: 132.62 MiB
    Density: 28.32 MiB
      Arrays: 12.70 MiB
      Localized functions: 10.74 MiB
      Mixer: 4.88 MiB
    Hamiltonian: 8.56 MiB
      Arrays: 8.30 MiB
      XC: 0.00 MiB
      Poisson: 0.00 MiB
      vbar: 0.26 MiB
    Wavefunctions: 95.74 MiB
      Arrays psit_nG: 40.53 MiB
      Eigensolver: 44.03 MiB
      Projections: 0.14 MiB
      Projectors: 1.05 MiB
      PW-descriptor: 9.98 MiB

Total number of cores used: 32
Parallelization over k-points: 8
Domain decomposition: 1 x 1 x 4
                      2 x 2 x 8 (xc only)

Number of atoms: 65
Number of atomic orbitals: 260
Number of bands in calculation: 82
Number of valence electrons: 129
Bands to converge: occupied

... initialized

Initializing position-dependent things.

Density initialized from atomic densities
Creating initial wave functions:
  82 bands from LCAO basis set

                                         
                                         
                                         
                                         
                                         
                                         
           Li   Li Li                    
              N   Li   N  Li             
             Li      Li                  
              LiN   Li LiN  Li           
                                         
           Li   Li Li    Li              
              N   Li   N  Li             
             Li      Li                  
              LiN   Li LiN  Li           
                                         
           Li N Li Li  N Li              
                  Li      Li             
             Li N    Li  N               
              Li    Li Li   Li           
                                         
           Li N Li Li  N Li              
                  Li      Li             
             Li N    Li  N               
              Li    Li Li   Li           
                                         
                Li       Li              
                                         
                                         
                                         
                                         

Positions:
   0 Li     1.753189    1.012426    1.530029    ( 0.0000,  0.0000,  0.0000)
   1 Li    -0.000191    4.049369    1.530029    ( 0.0000,  0.0000,  0.0000)
   2 Li     5.259899    1.012426    1.530029    ( 0.0000,  0.0000,  0.0000)
   3 Li     3.506519    4.049369    1.530029    ( 0.0000,  0.0000,  0.0000)
   4 Li     1.753084    1.012487   13.291285    ( 0.0000,  0.0000,  0.0000)
   5 Li    -0.000296    4.049430   13.291285    ( 0.0000,  0.0000,  0.0000)
   6 Li     5.259794    1.012487   13.291285    ( 0.0000,  0.0000,  0.0000)
   7 Li     3.506414    4.049430   13.291285    ( 0.0000,  0.0000,  0.0000)
   8 Li     3.506412    0.000213   15.411652    ( 0.0000,  0.0000,  0.0000)
   9 Li     1.753032    3.037156   15.411652    ( 0.0000,  0.0000,  0.0000)
  10 Li     7.013122    0.000213   15.411652    ( 0.0000,  0.0000,  0.0000)
  11 Li     5.259742    3.037156   15.411652    ( 0.0000,  0.0000,  0.0000)
  12 Li    -0.000315    2.024821   15.411652    ( 0.0000,  0.0000,  0.0000)
  13 Li    -1.753695    5.061764   15.411652    ( 0.0000,  0.0000,  0.0000)
  14 Li     3.506395    2.024821   15.411652    ( 0.0000,  0.0000,  0.0000)
  15 Li     1.753015    5.061764   15.411652    ( 0.0000,  0.0000,  0.0000)
  16 Li     3.506465    0.000182    3.465092    ( 0.0000,  0.0000,  0.0000)
  17 Li     1.753085    3.037125    3.465092    ( 0.0000,  0.0000,  0.0000)
  18 Li     7.013175    0.000182    3.465092    ( 0.0000,  0.0000,  0.0000)
  19 Li     5.259795    3.037125    3.465092    ( 0.0000,  0.0000,  0.0000)
  20 Li    -0.000262    2.024791    3.465092    ( 0.0000,  0.0000,  0.0000)
  21 Li    -1.753642    5.061734    3.465092    ( 0.0000,  0.0000,  0.0000)
  22 Li     3.506448    2.024791    3.465092    ( 0.0000,  0.0000,  0.0000)
  23 Li     1.753068    5.061734    3.465092    ( 0.0000,  0.0000,  0.0000)
  24 Li     1.753084    1.012487    5.431887    ( 0.0000,  0.0000,  0.0000)
  25 Li    -0.000296    4.049430    5.431887    ( 0.0000,  0.0000,  0.0000)
  26 Li     5.259794    1.012487    5.431887    ( 0.0000,  0.0000,  0.0000)
  27 Li     3.506414    4.049430    5.431887    ( 0.0000,  0.0000,  0.0000)
  28 Li     3.506429    0.000182    7.378027    ( 0.0000,  0.0000,  0.0000)
  29 Li     1.753049    3.037125    7.378027    ( 0.0000,  0.0000,  0.0000)
  30 Li     7.013139    0.000182    7.378027    ( 0.0000,  0.0000,  0.0000)
  31 Li     5.259759    3.037125    7.378027    ( 0.0000,  0.0000,  0.0000)
  32 Li    -0.000297    2.024791    7.378027    ( 0.0000,  0.0000,  0.0000)
  33 Li    -1.753677    5.061734    7.378027    ( 0.0000,  0.0000,  0.0000)
  34 Li     3.506413    2.024791    7.378027    ( 0.0000,  0.0000,  0.0000)
  35 Li     1.753033    5.061734    7.378027    ( 0.0000,  0.0000,  0.0000)
  36 Li     1.753084    1.012487    9.352306    ( 0.0000,  0.0000,  0.0000)
  37 Li    -0.000296    4.049430    9.352306    ( 0.0000,  0.0000,  0.0000)
  38 Li     5.259794    1.012487    9.352306    ( 0.0000,  0.0000,  0.0000)
  39 Li     3.506414    4.049430    9.352306    ( 0.0000,  0.0000,  0.0000)
  40 Li     3.506429    0.000182   11.319700    ( 0.0000,  0.0000,  0.0000)
  41 Li     1.753049    3.037125   11.319700    ( 0.0000,  0.0000,  0.0000)
  42 Li     7.013139    0.000182   11.319700    ( 0.0000,  0.0000,  0.0000)
  43 Li     5.259759    3.037125   11.319700    ( 0.0000,  0.0000,  0.0000)
  44 Li    -0.000297    2.024791   11.319700    ( 0.0000,  0.0000,  0.0000)
  45 Li    -1.753677    5.061734   11.319700    ( 0.0000,  0.0000,  0.0000)
  46 Li     3.506413    2.024791   11.319700    ( 0.0000,  0.0000,  0.0000)
  47 Li     1.753033    5.061734   11.319700    ( 0.0000,  0.0000,  0.0000)
  48 N      1.753084    1.012487    3.439048    ( 0.0000,  0.0000,  0.0000)
  49 N     -0.000296    4.049430    3.439048    ( 0.0000,  0.0000,  0.0000)
  50 N      5.259794    1.012487    3.439048    ( 0.0000,  0.0000,  0.0000)
  51 N      3.506414    4.049430    3.439048    ( 0.0000,  0.0000,  0.0000)
  52 N      1.753031    1.012517    7.360963    ( 0.0000,  0.0000,  0.0000)
  53 N     -0.000349    4.049460    7.360963    ( 0.0000,  0.0000,  0.0000)
  54 N      5.259741    1.012517    7.360963    ( 0.0000,  0.0000,  0.0000)
  55 N      3.506361    4.049460    7.360963    ( 0.0000,  0.0000,  0.0000)
  56 N      1.753031    1.012517   11.296051    ( 0.0000,  0.0000,  0.0000)
  57 N     -0.000349    4.049460   11.296051    ( 0.0000,  0.0000,  0.0000)
  58 N      5.259741    1.012517   11.296051    ( 0.0000,  0.0000,  0.0000)
  59 N      3.506361    4.049460   11.296051    ( 0.0000,  0.0000,  0.0000)
  60 N      1.753031    1.012517   15.214673    ( 0.0000,  0.0000,  0.0000)
  61 N     -0.000349    4.049460   15.214673    ( 0.0000,  0.0000,  0.0000)
  62 N      5.259741    1.012517   15.214673    ( 0.0000,  0.0000,  0.0000)
  63 N      3.506361    4.049460   15.214673    ( 0.0000,  0.0000,  0.0000)
  64 Li     1.740109    0.989564   17.211734    ( 0.0000,  0.0000,  0.0000)

Unit cell:
           periodic     x           y           z      points  spacing
  1. axis:    yes    7.013420    0.000000    0.000000    40     0.1518
  2. axis:    yes   -3.506760    6.073886    0.000000    40     0.1518
  3. axis:    yes    0.000000    0.000000   29.936001   160     0.1871

  Lengths:   7.013420   7.013520  29.936001
  Angles:   90.000000  90.000000 120.000000

Effective grid spacing dv^(1/3) = 0.1708

                     log10-error:    total        iterations:
           time      wfs    density  energy       fermi  poisson
iter:   1  19:48:38                -275.645977    4             
iter:   2  19:48:56  -0.99  -0.51  -263.043166    5             
iter:   3  19:49:14  -0.41  -0.56  -276.176414    33            
iter:   4  19:49:32  -1.88  -0.53  -251.528303    30            
iter:   5  19:49:50  -2.70  -0.71  -249.395806    3             
iter:   6  19:50:08  -1.39  -0.72  -245.393690    5             
iter:   7  19:50:26  -1.31  -0.78  -239.097207    30            
iter:   8  19:50:44  -1.69  -0.89  -237.704848    34            
iter:   9  19:51:02  -2.18  -0.96  -237.018628    34            
iter:  10  19:51:20  -1.93  -0.94  -243.169141    35            
iter:  11  19:51:38  -1.67  -0.79  -238.859605    32            
iter:  12  19:51:53  -1.71  -0.93  -237.060874    4             
iter:  13  19:52:11  -2.37  -1.33  -235.751778    5             
iter:  14  19:52:29  -3.08  -1.50  -235.538691    3             
iter:  15  19:52:47  -3.05  -1.51  -234.791967    4             
iter:  16  19:53:05  -2.61  -1.51  -234.861712    3             
iter:  17  19:53:23  -2.78  -1.40  -234.810678    6             
iter:  18  19:53:41  -3.15  -1.53  -234.388811    3             
iter:  19  19:53:59  -3.25  -1.61  -234.347778    4             
iter:  20  19:54:17  -3.96  -1.60  -234.282120    4             
iter:  21  19:54:35  -3.47  -1.67  -234.432264    5             
iter:  22  19:54:53  -3.10  -1.79  -234.330793    5             
iter:  23  19:55:11  -3.84  -1.83  -234.387460    3             
iter:  24  19:55:29  -3.88  -1.80  -234.264952    4             
iter:  25  19:55:47  -4.48  -2.36  -234.267150    3             
iter:  26  19:56:05  -4.36  -2.19  -234.268381    3             
iter:  27  19:56:23  -5.09  -2.51  -234.266121    3             
iter:  28  19:56:41  -4.78  -2.58  -234.260567    3             
iter:  29  19:56:59  -4.72  -2.63  -234.264900    3             
iter:  30  19:57:17  -5.94  -2.95  -234.264940    2             
iter:  31  19:57:35  -6.25  -2.99  -234.264577    2             
iter:  32  19:57:53  -5.88  -3.06  -234.263650    2             
iter:  33  19:58:11  -6.83  -3.17  -234.263758    2             
iter:  34  19:58:30  -5.72  -3.23  -234.262140    3             
iter:  35  19:58:48  -6.02  -3.23  -234.263668    3             
iter:  36  19:59:06  -6.68  -3.43  -234.262879    2             
iter:  37  19:59:24  -6.41  -3.59  -234.263228    2             
iter:  38  19:59:42  -7.59  -3.61  -234.263187    1             
iter:  39  20:00:00  -6.52  -3.67  -234.262850    2             
iter:  40  20:00:18  -7.00  -3.76  -234.262976    2             
iter:  41  20:00:36  -8.40  -3.94  -234.263148    2             
iter:  42  20:00:54  -7.62  -3.94  -234.262920    2             
iter:  43  20:01:12  -7.73  -3.96  -234.262985    2             
iter:  44  20:01:30  -8.11  -4.14  -234.263008    2             

Converged after 44 iterations.

Dipole moment: (-2.508240, 0.041895, -11.347613) |e|*Ang

Energy contributions relative to reference atoms: (reference = -33644.147259)

Kinetic:       +260.639697
Potential:     -191.988283
External:        +0.000000
XC:            -301.585125
Entropy (-ST):   -0.090850
Local:           -1.283872
--------------------------
Free energy:   -234.308433
Extrapolated:  -234.263008

Fermi level: -0.28211

Showing only first 2 kpts
 Kpt  Band  Eigenvalues  Occupancy
  0    62     -0.41974    0.07520
  0    63     -0.09489    0.00185
  0    64     -0.09485    0.00185
  0    65      0.22624    0.00000

  1    62     -0.45663    0.15527
  1    63     -0.34508    0.12463
  1    64     -0.21492    0.03310
  1    65      0.36285    0.00000


No gap

Forces in eV/Ang:
  0 Li   -0.00007    0.00005   -0.03708
  1 Li   -0.00007    0.00005   -0.03706
  2 Li   -0.00007    0.00005   -0.03706
  3 Li   -0.00007    0.00005   -0.03706
  4 Li   -0.00032   -0.00047    0.02308
  5 Li   -0.00062    0.00030    0.02900
  6 Li    0.00043   -0.00034    0.02900
  7 Li    0.00045    0.00089    0.02901
  8 Li    0.28655   -0.16249   -0.37666
  9 Li    0.00117    0.31953   -0.36036
 10 Li   -0.29448   -0.16843   -0.39308
 11 Li    0.00039    0.00062   -0.04974
 12 Li   -0.28384    0.16691   -0.37627
 13 Li    0.00131   -0.33922   -0.39325
 14 Li    0.27620    0.16100   -0.36057
 15 Li    0.00030    0.00078   -0.04974
 16 Li    0.00007   -0.00015   -0.03450
 17 Li    0.00001   -0.00004   -0.03450
 18 Li   -0.00006   -0.00015   -0.03450
 19 Li    0.00001   -0.00012   -0.03441
 20 Li   -0.00014    0.00011   -0.03450
 21 Li   -0.00007   -0.00000   -0.03450
 22 Li   -0.00001    0.00011   -0.03450
 23 Li   -0.00007    0.00007   -0.03441
 24 Li   -0.00002    0.00001   -0.02812
 25 Li   -0.00002    0.00001   -0.02786
 26 Li   -0.00002    0.00001   -0.02786
 27 Li   -0.00002    0.00001   -0.02786
 28 Li    0.00079   -0.00048    0.01369
 29 Li   -0.00007    0.00101    0.01369
 30 Li   -0.00093   -0.00048    0.01368
 31 Li   -0.00007    0.00001    0.01472
 32 Li   -0.00102    0.00070    0.01369
 33 Li   -0.00015   -0.00080    0.01368
 34 Li    0.00071    0.00070    0.01369
 35 Li   -0.00015    0.00020    0.01472
 36 Li   -0.00004    0.00006    0.00493
 37 Li   -0.00004    0.00001    0.00752
 38 Li   -0.00008    0.00003    0.00752
 39 Li   -0.00008   -0.00002    0.00752
 40 Li    0.01144   -0.00666   -0.02947
 41 Li   -0.00009    0.01332   -0.02972
 42 Li   -0.01159   -0.00665   -0.02924
 43 Li   -0.00007    0.00002   -0.01434
 44 Li   -0.01169    0.00683   -0.02948
 45 Li   -0.00016   -0.01310   -0.02923
 46 Li    0.01138    0.00684   -0.02971
 47 Li   -0.00015    0.00021   -0.01434
 48 N    -0.00018    0.00017    0.04721
 49 N    -0.00018    0.00017    0.04698
 50 N    -0.00018    0.00017    0.04698
 51 N    -0.00018    0.00017    0.04698
 52 N    -0.00005   -0.00005    0.04282
 53 N    -0.00005   -0.00004    0.03632
 54 N    -0.00004   -0.00005    0.03633
 55 N    -0.00004   -0.00004    0.03633
 56 N     0.00009    0.00019    0.08510
 57 N     0.00010   -0.00014    0.01861
 58 N    -0.00018    0.00002    0.01860
 59 N    -0.00018   -0.00030    0.01862
 60 N    -0.00902   -0.01551    1.76722
 61 N    -0.00290    0.00400    0.24661
 62 N     0.00432   -0.00028    0.24662
 63 N     0.00442    0.00812    0.24683
 64 Li    0.01433    0.02542   -0.40468

System changes: positions 

Initializing position-dependent things.

Density initialized from wave functions
                                         
                                         
                                         
                                         
                                         
                                         
           Li   Li Li                    
              N   Li   N  Li             
             Li      Li                  
              LiN   Li LiN  Li           
                                         
           Li   Li Li    Li              
              N   Li   N  Li             
             Li      Li                  
              LiN   Li LiN  Li           
                                         
           Li N Li Li  N Li              
                  Li      Li             
             Li N    Li  N               
              Li    Li Li   Li           
                                         
           Li N Li Li  N Li              
                  Li      Li             
             Li N    Li  N               
              Li    Li Li   Li           
                                         
                Li       Li              
                                         
                                         
                                         
                                         

Positions:
   0 Li     1.753189    1.012426    1.530029    ( 0.0000,  0.0000,  0.0000)
   1 Li    -0.000191    4.049369    1.530029    ( 0.0000,  0.0000,  0.0000)
   2 Li     5.259899    1.012426    1.530029    ( 0.0000,  0.0000,  0.0000)
   3 Li     3.506519    4.049369    1.530029    ( 0.0000,  0.0000,  0.0000)
   4 Li     1.753079    1.012480   13.291615    ( 0.0000,  0.0000,  0.0000)
   5 Li    -0.000305    4.049434   13.291699    ( 0.0000,  0.0000,  0.0000)
   6 Li     5.259800    1.012482   13.291699    ( 0.0000,  0.0000,  0.0000)
   7 Li     3.506420    4.049442   13.291700    ( 0.0000,  0.0000,  0.0000)
   8 Li     3.510506   -0.002109   15.406271    ( 0.0000,  0.0000,  0.0000)
   9 Li     1.753049    3.041720   15.406504    ( 0.0000,  0.0000,  0.0000)
  10 Li     7.008915   -0.002194   15.406037    ( 0.0000,  0.0000,  0.0000)
  11 Li     5.259747    3.037165   15.410941    ( 0.0000,  0.0000,  0.0000)
  12 Li    -0.004370    2.027206   15.406277    ( 0.0000,  0.0000,  0.0000)
  13 Li    -1.753676    5.056918   15.406034    ( 0.0000,  0.0000,  0.0000)
  14 Li     3.510341    2.027121   15.406501    ( 0.0000,  0.0000,  0.0000)
  15 Li     1.753020    5.061776   15.410941    ( 0.0000,  0.0000,  0.0000)
  16 Li     3.506465    0.000182    3.465092    ( 0.0000,  0.0000,  0.0000)
  17 Li     1.753085    3.037125    3.465092    ( 0.0000,  0.0000,  0.0000)
  18 Li     7.013175    0.000182    3.465092    ( 0.0000,  0.0000,  0.0000)
  19 Li     5.259795    3.037125    3.465092    ( 0.0000,  0.0000,  0.0000)
  20 Li    -0.000262    2.024791    3.465092    ( 0.0000,  0.0000,  0.0000)
  21 Li    -1.753642    5.061734    3.465092    ( 0.0000,  0.0000,  0.0000)
  22 Li     3.506448    2.024791    3.465092    ( 0.0000,  0.0000,  0.0000)
  23 Li     1.753068    5.061734    3.465092    ( 0.0000,  0.0000,  0.0000)
  24 Li     1.753084    1.012487    5.431887    ( 0.0000,  0.0000,  0.0000)
  25 Li    -0.000296    4.049430    5.431887    ( 0.0000,  0.0000,  0.0000)
  26 Li     5.259794    1.012487    5.431887    ( 0.0000,  0.0000,  0.0000)
  27 Li     3.506414    4.049430    5.431887    ( 0.0000,  0.0000,  0.0000)
  28 Li     3.506429    0.000182    7.378027    ( 0.0000,  0.0000,  0.0000)
  29 Li     1.753049    3.037125    7.378027    ( 0.0000,  0.0000,  0.0000)
  30 Li     7.013139    0.000182    7.378027    ( 0.0000,  0.0000,  0.0000)
  31 Li     5.259759    3.037125    7.378027    ( 0.0000,  0.0000,  0.0000)
  32 Li    -0.000297    2.024791    7.378027    ( 0.0000,  0.0000,  0.0000)
  33 Li    -1.753677    5.061734    7.378027    ( 0.0000,  0.0000,  0.0000)
  34 Li     3.506413    2.024791    7.378027    ( 0.0000,  0.0000,  0.0000)
  35 Li     1.753033    5.061734    7.378027    ( 0.0000,  0.0000,  0.0000)
  36 Li     1.753083    1.012487    9.352377    ( 0.0000,  0.0000,  0.0000)
  37 Li    -0.000297    4.049430    9.352413    ( 0.0000,  0.0000,  0.0000)
  38 Li     5.259793    1.012487    9.352413    ( 0.0000,  0.0000,  0.0000)
  39 Li     3.506413    4.049430    9.352413    ( 0.0000,  0.0000,  0.0000)
  40 Li     3.506593    0.000087   11.319279    ( 0.0000,  0.0000,  0.0000)
  41 Li     1.753048    3.037316   11.319276    ( 0.0000,  0.0000,  0.0000)
  42 Li     7.012974    0.000087   11.319282    ( 0.0000,  0.0000,  0.0000)
  43 Li     5.259759    3.037126   11.319495    ( 0.0000,  0.0000,  0.0000)
  44 Li    -0.000464    2.024888   11.319279    ( 0.0000,  0.0000,  0.0000)
  45 Li    -1.753680    5.061547   11.319282    ( 0.0000,  0.0000,  0.0000)
  46 Li     3.506575    2.024889   11.319276    ( 0.0000,  0.0000,  0.0000)
  47 Li     1.753031    5.061737   11.319495    ( 0.0000,  0.0000,  0.0000)
  48 N      1.753084    1.012487    3.439048    ( 0.0000,  0.0000,  0.0000)
  49 N     -0.000296    4.049430    3.439048    ( 0.0000,  0.0000,  0.0000)
  50 N      5.259794    1.012487    3.439048    ( 0.0000,  0.0000,  0.0000)
  51 N      3.506414    4.049430    3.439048    ( 0.0000,  0.0000,  0.0000)
  52 N      1.753031    1.012517    7.360963    ( 0.0000,  0.0000,  0.0000)
  53 N     -0.000349    4.049460    7.360963    ( 0.0000,  0.0000,  0.0000)
  54 N      5.259741    1.012517    7.360963    ( 0.0000,  0.0000,  0.0000)
  55 N      3.506361    4.049460    7.360963    ( 0.0000,  0.0000,  0.0000)
  56 N      1.753032    1.012520   11.297266    ( 0.0000,  0.0000,  0.0000)
  57 N     -0.000348    4.049458   11.296316    ( 0.0000,  0.0000,  0.0000)
  58 N      5.259739    1.012517   11.296316    ( 0.0000,  0.0000,  0.0000)
  59 N      3.506358    4.049456   11.296317    ( 0.0000,  0.0000,  0.0000)
  60 N      1.752902    1.012295   15.239919    ( 0.0000,  0.0000,  0.0000)
  61 N     -0.000390    4.049517   15.218196    ( 0.0000,  0.0000,  0.0000)
  62 N      5.259803    1.012513   15.218196    ( 0.0000,  0.0000,  0.0000)
  63 N      3.506424    4.049576   15.218199    ( 0.0000,  0.0000,  0.0000)
  64 Li     1.740314    0.989927   17.205953    ( 0.0000,  0.0000,  0.0000)

Unit cell:
           periodic     x           y           z      points  spacing
  1. axis:    yes    7.013420    0.000000    0.000000    40     0.1518
  2. axis:    yes   -3.506760    6.073886    0.000000    40     0.1518
  3. axis:    yes    0.000000    0.000000   29.936001   160     0.1871

  Lengths:   7.013420   7.013520  29.936001
  Angles:   90.000000  90.000000 120.000000

Effective grid spacing dv^(1/3) = 0.1708

                     log10-error:    total        iterations:
           time      wfs    density  energy       fermi  poisson
iter:   1  20:02:06  -3.28         -234.335556    3             
iter:   2  20:02:24  -4.22  -2.38  -234.393984    4             
iter:   3  20:02:42  -4.93  -2.20  -234.337368    4             
iter:   4  20:03:00  -4.57  -2.65  -234.329994    3             
iter:   5  20:03:18  -4.73  -2.38  -234.328893    3             
iter:   6  20:03:36  -5.63  -3.15  -234.328141    3             
iter:   7  20:03:54  -5.25  -3.30  -234.326953    3             
iter:   8  20:04:12  -5.85  -3.02  -234.329355    3             
iter:   9  20:04:30  -5.86  -3.43  -234.329187    3             
iter:  10  20:04:48  -6.60  -3.64  -234.328893    2             
iter:  11  20:05:06  -6.89  -3.86  -234.328711    2             
iter:  12  20:05:24  -6.93  -4.20  -234.328628    2             
iter:  13  20:05:42  -7.82  -4.20  -234.328610    2             

Converged after 13 iterations.

Dipole moment: (-2.484580, 0.083325, -11.345195) |e|*Ang

Energy contributions relative to reference atoms: (reference = -33644.147259)

Kinetic:       +260.832514
Potential:     -192.162710
External:        +0.000000
XC:            -301.673141
Entropy (-ST):   -0.091794
Local:           -1.279377
--------------------------
Free energy:   -234.374508
Extrapolated:  -234.328610

Fermi level: -0.28449

Showing only first 2 kpts
 Kpt  Band  Eigenvalues  Occupancy
  0    62     -0.41988    0.07500
  0    63     -0.10091    0.00198
  0    64     -0.10088    0.00198
  0    65      0.22103    0.00000

  1    62     -0.45725    0.15510
  1    63     -0.34901    0.12548
  1    64     -0.22001    0.03455
  1    65      0.35932    0.00000


No gap

Forces in eV/Ang:
  0 Li   -0.00007    0.00005   -0.03785
  1 Li   -0.00007    0.00005   -0.03780
  2 Li   -0.00007    0.00005   -0.03780
  3 Li   -0.00007    0.00005   -0.03780
  4 Li   -0.00029   -0.00041    0.11388
  5 Li   -0.00047    0.00024    0.03403
  6 Li    0.00030   -0.00023    0.03404
  7 Li    0.00032    0.00067    0.03405
  8 Li    0.23603   -0.13412   -0.33569
  9 Li    0.00084    0.26330   -0.32033
 10 Li   -0.24267   -0.13893   -0.35113
 11 Li   -0.00004   -0.00010   -0.03533
 12 Li   -0.23406    0.13736   -0.33532
 13 Li    0.00094   -0.27959   -0.35130
 14 Li    0.22763    0.13258   -0.32054
 15 Li   -0.00012    0.00004   -0.03533
 16 Li    0.00008   -0.00016   -0.03481
 17 Li    0.00001   -0.00003   -0.03481
 18 Li   -0.00007   -0.00016   -0.03481
 19 Li    0.00001   -0.00012   -0.03472
 20 Li   -0.00015    0.00011   -0.03481
 21 Li   -0.00007   -0.00001   -0.03481
 22 Li   -0.00000    0.00011   -0.03481
 23 Li   -0.00007    0.00007   -0.03472
 24 Li   -0.00002    0.00001   -0.02911
 25 Li   -0.00002    0.00001   -0.02878
 26 Li   -0.00001    0.00001   -0.02878
 27 Li   -0.00001    0.00001   -0.02878
 28 Li    0.00095   -0.00058    0.01357
 29 Li   -0.00007    0.00119    0.01357
 30 Li   -0.00109   -0.00058    0.01356
 31 Li   -0.00007    0.00001    0.01473
 32 Li   -0.00118    0.00079    0.01357
 33 Li   -0.00015   -0.00098    0.01356
 34 Li    0.00087    0.00079    0.01357
 35 Li   -0.00015    0.00020    0.01473
 36 Li   -0.00004    0.00005    0.00664
 37 Li   -0.00004    0.00001    0.00622
 38 Li   -0.00007    0.00003    0.00622
 39 Li   -0.00007   -0.00001    0.00622
 40 Li    0.01059   -0.00616   -0.02620
 41 Li   -0.00009    0.01235   -0.02641
 42 Li   -0.01075   -0.00615   -0.02600
 43 Li   -0.00007    0.00003   -0.01151
 44 Li   -0.01083    0.00632   -0.02621
 45 Li   -0.00015   -0.01215   -0.02600
 46 Li    0.01054    0.00633   -0.02641
 47 Li   -0.00014    0.00018   -0.01151
 48 N    -0.00018    0.00017    0.04707
 49 N    -0.00018    0.00017    0.04437
 50 N    -0.00018    0.00017    0.04437
 51 N    -0.00018    0.00017    0.04437
 52 N    -0.00004   -0.00004    0.04604
 53 N    -0.00004   -0.00005    0.03850
 54 N    -0.00005   -0.00005    0.03850
 55 N    -0.00005   -0.00005    0.03850
 56 N     0.00000    0.00005    0.07670
 57 N     0.00001   -0.00007    0.01224
 58 N    -0.00010   -0.00002    0.01224
 59 N    -0.00010   -0.00013    0.01225
 60 N    -0.00742   -0.01272    1.49194
 61 N    -0.00182    0.00305    0.18636
 62 N     0.00305    0.00015    0.18637
 63 N     0.00310    0.00583    0.18654
 64 Li    0.01326    0.02353   -0.33649

System changes: positions 

Initializing position-dependent things.

Density initialized from wave functions
                                         
                                         
                                         
                                         
                                         
                                         
           Li   Li Li                    
              N   Li   N  Li             
             Li      Li                  
              LiN   Li LiN  Li           
                                         
           Li   Li Li    Li              
              N   Li   N  Li             
             Li      Li                  
              LiN   Li LiN  Li           
                                         
           Li N Li Li  N Li              
                  Li      Li             
             Li N    Li  N               
              Li    Li Li   Li           
                                         
           Li N Li Li  N Li              
                  Li      Li             
             Li N    Li  N               
              Li    Li Li   Li           
                                         
                Li       Li              
                                         
                                         
                                         
                                         

Positions:
   0 Li     1.753189    1.012426    1.530029    ( 0.0000,  0.0000,  0.0000)
   1 Li    -0.000191    4.049369    1.530029    ( 0.0000,  0.0000,  0.0000)
   2 Li     5.259899    1.012426    1.530029    ( 0.0000,  0.0000,  0.0000)
   3 Li     3.506519    4.049369    1.530029    ( 0.0000,  0.0000,  0.0000)
   4 Li     1.753052    1.012441   13.302255    ( 0.0000,  0.0000,  0.0000)
   5 Li    -0.000350    4.049456   13.294914    ( 0.0000,  0.0000,  0.0000)
   6 Li     5.259829    1.012460   13.294914    ( 0.0000,  0.0000,  0.0000)
   7 Li     3.506451    4.049506   13.294916    ( 0.0000,  0.0000,  0.0000)
   8 Li     3.532933   -0.014853   15.374423    ( 0.0000,  0.0000,  0.0000)
   9 Li     1.753129    3.066739   15.376111    ( 0.0000,  0.0000,  0.0000)
  10 Li     6.985857   -0.015394   15.372724    ( 0.0000,  0.0000,  0.0000)
  11 Li     5.259745    3.037156   15.407573    ( 0.0000,  0.0000,  0.0000)
  12 Li    -0.026609    2.040257   15.374463    ( 0.0000,  0.0000,  0.0000)
  13 Li    -1.753587    5.030352   15.372706    ( 0.0000,  0.0000,  0.0000)
  14 Li     3.531970    2.039719   15.376089    ( 0.0000,  0.0000,  0.0000)
  15 Li     1.753009    5.061781   15.407574    ( 0.0000,  0.0000,  0.0000)
  16 Li     3.506465    0.000182    3.465092    ( 0.0000,  0.0000,  0.0000)
  17 Li     1.753085    3.037125    3.465092    ( 0.0000,  0.0000,  0.0000)
  18 Li     7.013175    0.000182    3.465092    ( 0.0000,  0.0000,  0.0000)
  19 Li     5.259795    3.037125    3.465092    ( 0.0000,  0.0000,  0.0000)
  20 Li    -0.000262    2.024791    3.465092    ( 0.0000,  0.0000,  0.0000)
  21 Li    -1.753642    5.061734    3.465092    ( 0.0000,  0.0000,  0.0000)
  22 Li     3.506448    2.024791    3.465092    ( 0.0000,  0.0000,  0.0000)
  23 Li     1.753068    5.061734    3.465092    ( 0.0000,  0.0000,  0.0000)
  24 Li     1.753084    1.012487    5.431887    ( 0.0000,  0.0000,  0.0000)
  25 Li    -0.000296    4.049430    5.431887    ( 0.0000,  0.0000,  0.0000)
  26 Li     5.259794    1.012487    5.431887    ( 0.0000,  0.0000,  0.0000)
  27 Li     3.506414    4.049430    5.431887    ( 0.0000,  0.0000,  0.0000)
  28 Li     3.506429    0.000182    7.378027    ( 0.0000,  0.0000,  0.0000)
  29 Li     1.753049    3.037125    7.378027    ( 0.0000,  0.0000,  0.0000)
  30 Li     7.013139    0.000182    7.378027    ( 0.0000,  0.0000,  0.0000)
  31 Li     5.259759    3.037125    7.378027    ( 0.0000,  0.0000,  0.0000)
  32 Li    -0.000297    2.024791    7.378027    ( 0.0000,  0.0000,  0.0000)
  33 Li    -1.753677    5.061734    7.378027    ( 0.0000,  0.0000,  0.0000)
  34 Li     3.506413    2.024791    7.378027    ( 0.0000,  0.0000,  0.0000)
  35 Li     1.753033    5.061734    7.378027    ( 0.0000,  0.0000,  0.0000)
  36 Li     1.753079    1.012492    9.353002    ( 0.0000,  0.0000,  0.0000)
  37 Li    -0.000301    4.049431    9.353004    ( 0.0000,  0.0000,  0.0000)
  38 Li     5.259786    1.012490    9.353004    ( 0.0000,  0.0000,  0.0000)
  39 Li     3.506406    4.049429    9.353004    ( 0.0000,  0.0000,  0.0000)
  40 Li     3.507597   -0.000497   11.316793    ( 0.0000,  0.0000,  0.0000)
  41 Li     1.753040    3.038487   11.316770    ( 0.0000,  0.0000,  0.0000)
  42 Li     7.011955   -0.000496   11.316815    ( 0.0000,  0.0000,  0.0000)
  43 Li     5.259752    3.037128   11.318401    ( 0.0000,  0.0000,  0.0000)
  44 Li    -0.001491    2.025488   11.316792    ( 0.0000,  0.0000,  0.0000)
  45 Li    -1.753694    5.060395   11.316816    ( 0.0000,  0.0000,  0.0000)
  46 Li     3.507575    2.025489   11.316770    ( 0.0000,  0.0000,  0.0000)
  47 Li     1.753017    5.061754   11.318401    ( 0.0000,  0.0000,  0.0000)
  48 N      1.753084    1.012487    3.439048    ( 0.0000,  0.0000,  0.0000)
  49 N     -0.000296    4.049430    3.439048    ( 0.0000,  0.0000,  0.0000)
  50 N      5.259794    1.012487    3.439048    ( 0.0000,  0.0000,  0.0000)
  51 N      3.506414    4.049430    3.439048    ( 0.0000,  0.0000,  0.0000)
  52 N      1.753031    1.012517    7.360963    ( 0.0000,  0.0000,  0.0000)
  53 N     -0.000349    4.049460    7.360963    ( 0.0000,  0.0000,  0.0000)
  54 N      5.259741    1.012517    7.360963    ( 0.0000,  0.0000,  0.0000)
  55 N      3.506361    4.049460    7.360963    ( 0.0000,  0.0000,  0.0000)
  56 N      1.753033    1.012525   11.304542    ( 0.0000,  0.0000,  0.0000)
  57 N     -0.000347    4.049451   11.297485    ( 0.0000,  0.0000,  0.0000)
  58 N      5.259729    1.012516   11.297486    ( 0.0000,  0.0000,  0.0000)
  59 N      3.506349    4.049443   11.297487    ( 0.0000,  0.0000,  0.0000)
  60 N      1.752197    1.011087   15.381613    ( 0.0000,  0.0000,  0.0000)
  61 N     -0.000564    4.049808   15.235936    ( 0.0000,  0.0000,  0.0000)
  62 N      5.260093    1.012526   15.235937    ( 0.0000,  0.0000,  0.0000)
  63 N      3.506720    4.050132   15.235957    ( 0.0000,  0.0000,  0.0000)
  64 Li     1.741571    0.992158   17.173986    ( 0.0000,  0.0000,  0.0000)

Unit cell:
           periodic     x           y           z      points  spacing
  1. axis:    yes    7.013420    0.000000    0.000000    40     0.1518
  2. axis:    yes   -3.506760    6.073886    0.000000    40     0.1518
  3. axis:    yes    0.000000    0.000000   29.936001   160     0.1871

  Lengths:   7.013420   7.013520  29.936001
  Angles:   90.000000  90.000000 120.000000

Effective grid spacing dv^(1/3) = 0.1708

                     log10-error:    total        iterations:
           time      wfs    density  energy       fermi  poisson
iter:   1  20:06:18  -1.84         -234.710474    4             
iter:   2  20:06:36  -2.98  -1.80  -234.981707    5             
iter:   3  20:06:54  -3.76  -1.71  -234.585226    4             
iter:   4  20:07:12  -3.48  -2.09  -234.615322    4             
iter:   5  20:07:30  -3.15  -1.85  -234.507808    4             
iter:   6  20:07:48  -3.86  -2.30  -234.523393    3             
iter:   7  20:08:06  -4.17  -2.16  -234.500639    3             
iter:   8  20:08:24  -3.58  -2.31  -234.487074    4             
iter:   9  20:08:42  -4.74  -2.66  -234.486320    2             
iter:  10  20:09:00  -4.30  -2.64  -234.487544    3             
iter:  11  20:09:19  -5.33  -2.89  -234.485538    2             
iter:  12  20:09:37  -5.50  -3.06  -234.485831    2             
iter:  13  20:09:55  -5.48  -3.04  -234.484200    3             
iter:  14  20:10:13  -5.36  -3.25  -234.484337    3             
iter:  15  20:10:31  -6.55  -3.24  -234.484243    3             
iter:  16  20:10:49  -6.02  -3.34  -234.483585    3             
iter:  17  20:11:07  -6.95  -3.61  -234.483726    2             
iter:  18  20:11:25  -6.57  -3.67  -234.483450    3             
iter:  19  20:11:43  -5.97  -3.65  -234.483970    3             
iter:  20  20:12:01  -6.80  -3.65  -234.483697    3             
iter:  21  20:12:19  -5.90  -3.91  -234.483549    3             
iter:  22  20:12:37  -5.93  -3.73  -234.483640    3             
iter:  23  20:12:56  -7.15  -3.98  -234.483713    2             
iter:  24  20:13:14  -7.98  -4.31  -234.483696    2             

Converged after 24 iterations.

Dipole moment: (-2.347328, 0.318454, -11.364450) |e|*Ang

Energy contributions relative to reference atoms: (reference = -33644.147259)

Kinetic:       +262.376002
Potential:     -193.312951
External:        +0.000000
XC:            -302.222573
Entropy (-ST):   -0.096412
Local:           -1.275969
--------------------------
Free energy:   -234.531903
Extrapolated:  -234.483696

Fermi level: -0.30655

Showing only first 2 kpts
 Kpt  Band  Eigenvalues  Occupancy
  0    62     -0.43425    0.07423
  0    63     -0.14741    0.00319
  0    64     -0.14737    0.00318
  0    65      0.18587    0.00000

  1    62     -0.47624    0.15480
  1    63     -0.38035    0.13023
  1    64     -0.25702    0.04333
  1    65      0.33198    0.00000


No gap

Forces in eV/Ang:
  0 Li   -0.00007    0.00005   -0.04057
  1 Li   -0.00007    0.00005   -0.04046
  2 Li   -0.00007    0.00005   -0.04046
  3 Li   -0.00007    0.00005   -0.04046
  4 Li    0.00001    0.00016    0.36605
  5 Li    0.00059   -0.00024    0.03709
  6 Li   -0.00063    0.00046    0.03709
  7 Li   -0.00063   -0.00095    0.03714
  8 Li   -0.03944    0.02070   -0.10632
  9 Li   -0.00096   -0.04307   -0.09654
 10 Li    0.03999    0.02212   -0.11609
 11 Li   -0.00215   -0.00365    0.05190
 12 Li    0.03747   -0.02368   -0.10608
 13 Li   -0.00101    0.04580   -0.11620
 14 Li   -0.03702   -0.02226   -0.09668
 15 Li   -0.00220   -0.00363    0.05190
 16 Li    0.00013   -0.00019   -0.03683
 17 Li    0.00001    0.00003   -0.03683
 18 Li   -0.00012   -0.00019   -0.03683
 19 Li    0.00001   -0.00012   -0.03668
 20 Li   -0.00020    0.00014   -0.03683
 21 Li   -0.00007   -0.00007   -0.03683
 22 Li    0.00005    0.00014   -0.03683
 23 Li   -0.00007    0.00007   -0.03668
 24 Li   -0.00002    0.00001   -0.03293
 25 Li   -0.00002    0.00001   -0.03244
 26 Li   -0.00002    0.00001   -0.03244
 27 Li   -0.00002    0.00001   -0.03244
 28 Li    0.00173   -0.00103    0.01262
 29 Li   -0.00007    0.00210    0.01262
 30 Li   -0.00188   -0.00103    0.01262
 31 Li   -0.00007    0.00001    0.01437
 32 Li   -0.00196    0.00124    0.01262
 33 Li   -0.00015   -0.00188    0.01262
 34 Li    0.00165    0.00124    0.01262
 35 Li   -0.00016    0.00020    0.01437
 36 Li   -0.00006    0.00001    0.01890
 37 Li   -0.00007    0.00003   -0.00128
 38 Li   -0.00005    0.00001   -0.00128
 39 Li   -0.00004    0.00004   -0.00127
 40 Li    0.00271   -0.00156   -0.00240
 41 Li   -0.00009    0.00329   -0.00243
 42 Li   -0.00289   -0.00156   -0.00238
 43 Li   -0.00009    0.00006    0.00625
 44 Li   -0.00289    0.00165   -0.00241
 45 Li   -0.00008   -0.00320   -0.00238
 46 Li    0.00272    0.00165   -0.00243
 47 Li   -0.00008    0.00004    0.00625
 48 N    -0.00017    0.00018    0.06510
 49 N    -0.00018    0.00018    0.05349
 50 N    -0.00018    0.00017    0.05349
 51 N    -0.00018    0.00018    0.05349
 52 N    -0.00005   -0.00005    0.05960
 53 N    -0.00005   -0.00004    0.04996
 54 N    -0.00004   -0.00005    0.04996
 55 N    -0.00004   -0.00004    0.04996
 56 N    -0.00005    0.00012    0.08259
 57 N    -0.00008    0.00006   -0.00539
 58 N    -0.00008    0.00007   -0.00539
 59 N    -0.00008    0.00006   -0.00536
 60 N     0.00404    0.00741   -0.36685
 61 N     0.00378   -0.00222   -0.10716
 62 N    -0.00383    0.00232   -0.10718
 63 N    -0.00392   -0.00655   -0.10719
 64 Li    0.00457    0.00810    0.50454

System changes: positions 

Initializing position-dependent things.

Density initialized from wave functions
                                         
                                         
                                         
                                         
                                         
                                         
           Li   Li Li                    
              N   Li   N  Li             
             Li      Li                  
              LiN   Li LiN  Li           
                                         
           Li   Li Li    Li              
              N   Li   N  Li             
             Li      Li                  
              LiN   Li LiN  Li           
                                         
           Li N Li Li  N Li              
                  Li      Li             
             Li N    Li  N               
              Li    Li Li   Li           
                                         
           Li N Li Li  N Li              
                  Li      Li             
             Li N    Li  N               
              Li    Li Li   Li           
                                         
                Li       Li              
                                         
                                         
                                         
                                         

Positions:
   0 Li     1.753189    1.012426    1.530029    ( 0.0000,  0.0000,  0.0000)
   1 Li    -0.000191    4.049369    1.530029    ( 0.0000,  0.0000,  0.0000)
   2 Li     5.259899    1.012426    1.530029    ( 0.0000,  0.0000,  0.0000)
   3 Li     3.506519    4.049369    1.530029    ( 0.0000,  0.0000,  0.0000)
   4 Li     1.753054    1.012447   13.305555    ( 0.0000,  0.0000,  0.0000)
   5 Li    -0.000338    4.049451   13.295030    ( 0.0000,  0.0000,  0.0000)
   6 Li     5.259818    1.012468   13.295030    ( 0.0000,  0.0000,  0.0000)
   7 Li     3.506440    4.049488   13.295032    ( 0.0000,  0.0000,  0.0000)
   8 Li     3.530163   -0.013300   15.376392    ( 0.0000,  0.0000,  0.0000)
   9 Li     1.753109    3.063661   15.378050    ( 0.0000,  0.0000,  0.0000)
  10 Li     6.988697   -0.013777   15.374725    ( 0.0000,  0.0000,  0.0000)
  11 Li     5.259719    3.037113   15.408547    ( 0.0000,  0.0000,  0.0000)
  12 Li    -0.023883    2.038637   15.376432    ( 0.0000,  0.0000,  0.0000)
  13 Li    -1.753608    5.033622   15.374707    ( 0.0000,  0.0000,  0.0000)
  14 Li     3.529312    2.038162   15.378028    ( 0.0000,  0.0000,  0.0000)
  15 Li     1.752984    5.061736   15.408547    ( 0.0000,  0.0000,  0.0000)
  16 Li     3.506465    0.000182    3.465092    ( 0.0000,  0.0000,  0.0000)
  17 Li     1.753085    3.037125    3.465092    ( 0.0000,  0.0000,  0.0000)
  18 Li     7.013175    0.000182    3.465092    ( 0.0000,  0.0000,  0.0000)
  19 Li     5.259795    3.037125    3.465092    ( 0.0000,  0.0000,  0.0000)
  20 Li    -0.000262    2.024791    3.465092    ( 0.0000,  0.0000,  0.0000)
  21 Li    -1.753642    5.061734    3.465092    ( 0.0000,  0.0000,  0.0000)
  22 Li     3.506448    2.024791    3.465092    ( 0.0000,  0.0000,  0.0000)
  23 Li     1.753068    5.061734    3.465092    ( 0.0000,  0.0000,  0.0000)
  24 Li     1.753084    1.012487    5.431887    ( 0.0000,  0.0000,  0.0000)
  25 Li    -0.000296    4.049430    5.431887    ( 0.0000,  0.0000,  0.0000)
  26 Li     5.259794    1.012487    5.431887    ( 0.0000,  0.0000,  0.0000)
  27 Li     3.506414    4.049430    5.431887    ( 0.0000,  0.0000,  0.0000)
  28 Li     3.506429    0.000182    7.378027    ( 0.0000,  0.0000,  0.0000)
  29 Li     1.753049    3.037125    7.378027    ( 0.0000,  0.0000,  0.0000)
  30 Li     7.013139    0.000182    7.378027    ( 0.0000,  0.0000,  0.0000)
  31 Li     5.259759    3.037125    7.378027    ( 0.0000,  0.0000,  0.0000)
  32 Li    -0.000297    2.024791    7.378027    ( 0.0000,  0.0000,  0.0000)
  33 Li    -1.753677    5.061734    7.378027    ( 0.0000,  0.0000,  0.0000)
  34 Li     3.506413    2.024791    7.378027    ( 0.0000,  0.0000,  0.0000)
  35 Li     1.753033    5.061734    7.378027    ( 0.0000,  0.0000,  0.0000)
  36 Li     1.753079    1.012492    9.353167    ( 0.0000,  0.0000,  0.0000)
  37 Li    -0.000301    4.049431    9.352928    ( 0.0000,  0.0000,  0.0000)
  38 Li     5.259786    1.012490    9.352928    ( 0.0000,  0.0000,  0.0000)
  39 Li     3.506406    4.049429    9.352928    ( 0.0000,  0.0000,  0.0000)
  40 Li     3.507527   -0.000456   11.317019    ( 0.0000,  0.0000,  0.0000)
  41 Li     1.753040    3.038406   11.316997    ( 0.0000,  0.0000,  0.0000)
  42 Li     7.012025   -0.000455   11.317039    ( 0.0000,  0.0000,  0.0000)
  43 Li     5.259751    3.037129   11.318589    ( 0.0000,  0.0000,  0.0000)
  44 Li    -0.001420    2.025446   11.317019    ( 0.0000,  0.0000,  0.0000)
  45 Li    -1.753693    5.060474   11.317040    ( 0.0000,  0.0000,  0.0000)
  46 Li     3.507505    2.025447   11.316998    ( 0.0000,  0.0000,  0.0000)
  47 Li     1.753018    5.061753   11.318589    ( 0.0000,  0.0000,  0.0000)
  48 N      1.753084    1.012487    3.439048    ( 0.0000,  0.0000,  0.0000)
  49 N     -0.000296    4.049430    3.439048    ( 0.0000,  0.0000,  0.0000)
  50 N      5.259794    1.012487    3.439048    ( 0.0000,  0.0000,  0.0000)
  51 N      3.506414    4.049430    3.439048    ( 0.0000,  0.0000,  0.0000)
  52 N      1.753031    1.012517    7.360963    ( 0.0000,  0.0000,  0.0000)
  53 N     -0.000349    4.049460    7.360963    ( 0.0000,  0.0000,  0.0000)
  54 N      5.259741    1.012517    7.360963    ( 0.0000,  0.0000,  0.0000)
  55 N      3.506361    4.049460    7.360963    ( 0.0000,  0.0000,  0.0000)
  56 N      1.753032    1.012526   11.304807    ( 0.0000,  0.0000,  0.0000)
  57 N     -0.000348    4.049453   11.297304    ( 0.0000,  0.0000,  0.0000)
  58 N      5.259729    1.012517   11.297304    ( 0.0000,  0.0000,  0.0000)
  59 N      3.506349    4.049445   11.297305    ( 0.0000,  0.0000,  0.0000)
  60 N      1.752319    1.011301   15.362630    ( 0.0000,  0.0000,  0.0000)
  61 N     -0.000501    4.049751   15.232832    ( 0.0000,  0.0000,  0.0000)
  62 N      5.260017    1.012553   15.232833    ( 0.0000,  0.0000,  0.0000)
  63 N      3.506642    4.049996   15.232851    ( 0.0000,  0.0000,  0.0000)
  64 Li     1.741497    0.992027   17.183441    ( 0.0000,  0.0000,  0.0000)

Unit cell:
           periodic     x           y           z      points  spacing
  1. axis:    yes    7.013420    0.000000    0.000000    40     0.1518
  2. axis:    yes   -3.506760    6.073886    0.000000    40     0.1518
  3. axis:    yes    0.000000    0.000000   29.936001   160     0.1871

  Lengths:   7.013420   7.013520  29.936001
  Angles:   90.000000  90.000000 120.000000

Effective grid spacing dv^(1/3) = 0.1708

                     log10-error:    total        iterations:
           time      wfs    density  energy       fermi  poisson
iter:   1  20:13:49  -3.50         -234.497702    3             
iter:   2  20:14:07  -4.89  -2.74  -234.496255    3             
iter:   3  20:14:25  -4.93  -2.88  -234.491708    3             
iter:   4  20:14:44  -5.95  -2.84  -234.493800    3             
iter:   5  20:15:02  -5.08  -3.15  -234.492192    3             
iter:   6  20:15:20  -4.86  -3.24  -234.493198    3             
iter:   7  20:15:38  -5.78  -3.33  -234.492471    3             
iter:   8  20:15:56  -5.93  -3.78  -234.492801    2             
iter:   9  20:16:14  -7.16  -3.86  -234.492659    2             
iter:  10  20:16:32  -7.74  -4.10  -234.492630    2             

Converged after 10 iterations.

Dipole moment: (-2.364929, 0.289105, -11.359830) |e|*Ang

Energy contributions relative to reference atoms: (reference = -33644.147259)

Kinetic:       +262.047034
Potential:     -193.072597
External:        +0.000000
XC:            -302.133759
Entropy (-ST):   -0.095882
Local:           -1.285367
--------------------------
Free energy:   -234.540571
Extrapolated:  -234.492630

Fermi level: -0.30151

Showing only first 2 kpts
 Kpt  Band  Eigenvalues  Occupancy
  0    62     -0.42987    0.07430
  0    63     -0.13880    0.00297
  0    64     -0.13875    0.00297
  0    65      0.19300    0.00000

  1    62     -0.47104    0.15478
  1    63     -0.37413    0.12966
  1    64     -0.25022    0.04222
  1    65      0.33794    0.00000


No gap

Forces in eV/Ang:
  0 Li   -0.00007    0.00005   -0.04020
  1 Li   -0.00007    0.00005   -0.04007
  2 Li   -0.00007    0.00005   -0.04007
  3 Li   -0.00007    0.00005   -0.04007
  4 Li    0.00009    0.00030    0.31979
  5 Li    0.00052   -0.00024    0.02733
  6 Li   -0.00059    0.00040    0.02733
  7 Li   -0.00059   -0.00088    0.02738
  8 Li   -0.00483    0.00126   -0.12905
  9 Li   -0.00072   -0.00455   -0.11909
 10 Li    0.00451    0.00190   -0.13900
 11 Li   -0.00165   -0.00277    0.04380
 12 Li    0.00336   -0.00344   -0.12880
 13 Li   -0.00076    0.00496   -0.13911
 14 Li   -0.00374   -0.00279   -0.11923
 15 Li   -0.00169   -0.00274    0.04380
 16 Li    0.00013   -0.00019   -0.03624
 17 Li    0.00001    0.00002   -0.03624
 18 Li   -0.00011   -0.00019   -0.03624
 19 Li    0.00001   -0.00012   -0.03610
 20 Li   -0.00019    0.00014   -0.03624
 21 Li   -0.00007   -0.00007   -0.03624
 22 Li    0.00004    0.00014   -0.03624
 23 Li   -0.00007    0.00007   -0.03610
 24 Li   -0.00002    0.00001   -0.03254
 25 Li   -0.00002    0.00001   -0.03220
 26 Li   -0.00002    0.00001   -0.03220
 27 Li   -0.00002    0.00001   -0.03220
 28 Li    0.00164   -0.00098    0.01278
 29 Li   -0.00007    0.00200    0.01278
 30 Li   -0.00179   -0.00098    0.01278
 31 Li   -0.00007    0.00001    0.01447
 32 Li   -0.00187    0.00119    0.01278
 33 Li   -0.00015   -0.00178    0.01278
 34 Li    0.00156    0.00119    0.01278
 35 Li   -0.00016    0.00020    0.01447
 36 Li   -0.00006    0.00001    0.02053
 37 Li   -0.00007    0.00003   -0.00064
 38 Li   -0.00005    0.00001   -0.00064
 39 Li   -0.00004    0.00004   -0.00064
 40 Li    0.00247   -0.00145   -0.00285
 41 Li   -0.00010    0.00302   -0.00291
 42 Li   -0.00265   -0.00144   -0.00279
 43 Li   -0.00008    0.00007    0.00504
 44 Li   -0.00267    0.00152   -0.00285
 45 Li   -0.00010   -0.00291   -0.00279
 46 Li    0.00249    0.00153   -0.00291
 47 Li   -0.00008    0.00007    0.00504
 48 N    -0.00018    0.00018    0.06592
 49 N    -0.00018    0.00018    0.05246
 50 N    -0.00018    0.00017    0.05246
 51 N    -0.00018    0.00018    0.05246
 52 N    -0.00005   -0.00005    0.05802
 53 N    -0.00005   -0.00005    0.04796
 54 N    -0.00005   -0.00005    0.04796
 55 N    -0.00005   -0.00004    0.04797
 56 N    -0.00002    0.00015    0.08626
 57 N    -0.00004    0.00003    0.00136
 58 N    -0.00011    0.00007    0.00136
 59 N    -0.00012   -0.00001    0.00137
 60 N     0.00156    0.00302   -0.00344
 61 N     0.00211   -0.00140   -0.06526
 62 N    -0.00237    0.00128   -0.06525
 63 N    -0.00242   -0.00395   -0.06521
 64 Li    0.00586    0.01040    0.28388

System changes: positions 

Initializing position-dependent things.

Density initialized from wave functions
                                         
                                         
                                         
                                         
                                         
                                         
           Li   Li Li                    
              N   Li   N  Li             
             Li      Li                  
              LiN   Li LiN  Li           
                                         
           Li   Li Li    Li              
              N   Li   N  Li             
             Li      Li                  
              LiN   Li LiN  Li           
                                         
           Li N Li Li  N Li              
                  Li      Li             
             Li N    Li  N               
              Li    Li Li   Li           
                                         
           Li N Li Li  N Li              
                  Li      Li             
             Li N    Li  N               
              Li    Li Li   Li           
                                         
                Li       Li              
                                         
                                         
                                         
                                         

Positions:
   0 Li     1.753189    1.012426    1.530029    ( 0.0000,  0.0000,  0.0000)
   1 Li    -0.000191    4.049369    1.530029    ( 0.0000,  0.0000,  0.0000)
   2 Li     5.259899    1.012426    1.530029    ( 0.0000,  0.0000,  0.0000)
   3 Li     3.506519    4.049369    1.530029    ( 0.0000,  0.0000,  0.0000)
   4 Li     1.753056    1.012454   13.314078    ( 0.0000,  0.0000,  0.0000)
   5 Li    -0.000324    4.049445   13.295809    ( 0.0000,  0.0000,  0.0000)
   6 Li     5.259803    1.012478   13.295809    ( 0.0000,  0.0000,  0.0000)
   7 Li     3.506425    4.049465   13.295812    ( 0.0000,  0.0000,  0.0000)
   8 Li     3.529877   -0.013177   15.373112    ( 0.0000,  0.0000,  0.0000)
   9 Li     1.753089    3.063364   15.375031    ( 0.0000,  0.0000,  0.0000)
  10 Li     6.988979   -0.013634   15.371185    ( 0.0000,  0.0000,  0.0000)
  11 Li     5.259673    3.037035   15.409722    ( 0.0000,  0.0000,  0.0000)
  12 Li    -0.023637    2.038453   15.373159    ( 0.0000,  0.0000,  0.0000)
  13 Li    -1.753629    5.033940   15.371165    ( 0.0000,  0.0000,  0.0000)
  14 Li     3.529060    2.037999   15.375006    ( 0.0000,  0.0000,  0.0000)
  15 Li     1.752937    5.061659   15.409723    ( 0.0000,  0.0000,  0.0000)
  16 Li     3.506465    0.000182    3.465092    ( 0.0000,  0.0000,  0.0000)
  17 Li     1.753085    3.037125    3.465092    ( 0.0000,  0.0000,  0.0000)
  18 Li     7.013175    0.000182    3.465092    ( 0.0000,  0.0000,  0.0000)
  19 Li     5.259795    3.037125    3.465092    ( 0.0000,  0.0000,  0.0000)
  20 Li    -0.000262    2.024791    3.465092    ( 0.0000,  0.0000,  0.0000)
  21 Li    -1.753642    5.061734    3.465092    ( 0.0000,  0.0000,  0.0000)
  22 Li     3.506448    2.024791    3.465092    ( 0.0000,  0.0000,  0.0000)
  23 Li     1.753068    5.061734    3.465092    ( 0.0000,  0.0000,  0.0000)
  24 Li     1.753084    1.012487    5.431887    ( 0.0000,  0.0000,  0.0000)
  25 Li    -0.000296    4.049430    5.431887    ( 0.0000,  0.0000,  0.0000)
  26 Li     5.259794    1.012487    5.431887    ( 0.0000,  0.0000,  0.0000)
  27 Li     3.506414    4.049430    5.431887    ( 0.0000,  0.0000,  0.0000)
  28 Li     3.506429    0.000182    7.378027    ( 0.0000,  0.0000,  0.0000)
  29 Li     1.753049    3.037125    7.378027    ( 0.0000,  0.0000,  0.0000)
  30 Li     7.013139    0.000182    7.378027    ( 0.0000,  0.0000,  0.0000)
  31 Li     5.259759    3.037125    7.378027    ( 0.0000,  0.0000,  0.0000)
  32 Li    -0.000297    2.024791    7.378027    ( 0.0000,  0.0000,  0.0000)
  33 Li    -1.753677    5.061734    7.378027    ( 0.0000,  0.0000,  0.0000)
  34 Li     3.506413    2.024791    7.378027    ( 0.0000,  0.0000,  0.0000)
  35 Li     1.753033    5.061734    7.378027    ( 0.0000,  0.0000,  0.0000)
  36 Li     1.753077    1.012492    9.353687    ( 0.0000,  0.0000,  0.0000)
  37 Li    -0.000303    4.049432    9.352909    ( 0.0000,  0.0000,  0.0000)
  38 Li     5.259785    1.012490    9.352909    ( 0.0000,  0.0000,  0.0000)
  39 Li     3.506405    4.049430    9.352909    ( 0.0000,  0.0000,  0.0000)
  40 Li     3.507595   -0.000495   11.316942    ( 0.0000,  0.0000,  0.0000)
  41 Li     1.753037    3.038489   11.316918    ( 0.0000,  0.0000,  0.0000)
  42 Li     7.011952   -0.000494   11.316963    ( 0.0000,  0.0000,  0.0000)
  43 Li     5.259749    3.037131   11.318723    ( 0.0000,  0.0000,  0.0000)
  44 Li    -0.001493    2.025488   11.316941    ( 0.0000,  0.0000,  0.0000)
  45 Li    -1.753696    5.060394   11.316963    ( 0.0000,  0.0000,  0.0000)
  46 Li     3.507574    2.025489   11.316918    ( 0.0000,  0.0000,  0.0000)
  47 Li     1.753016    5.061755   11.318723    ( 0.0000,  0.0000,  0.0000)
  48 N      1.753084    1.012487    3.439048    ( 0.0000,  0.0000,  0.0000)
  49 N     -0.000296    4.049430    3.439048    ( 0.0000,  0.0000,  0.0000)
  50 N      5.259794    1.012487    3.439048    ( 0.0000,  0.0000,  0.0000)
  51 N      3.506414    4.049430    3.439048    ( 0.0000,  0.0000,  0.0000)
  52 N      1.753031    1.012517    7.360963    ( 0.0000,  0.0000,  0.0000)
  53 N     -0.000349    4.049460    7.360963    ( 0.0000,  0.0000,  0.0000)
  54 N      5.259741    1.012517    7.360963    ( 0.0000,  0.0000,  0.0000)
  55 N      3.506361    4.049460    7.360963    ( 0.0000,  0.0000,  0.0000)
  56 N      1.753032    1.012530   11.307045    ( 0.0000,  0.0000,  0.0000)
  57 N     -0.000349    4.049453   11.297300    ( 0.0000,  0.0000,  0.0000)
  58 N      5.259726    1.012519   11.297300    ( 0.0000,  0.0000,  0.0000)
  59 N      3.506346    4.049445   11.297302    ( 0.0000,  0.0000,  0.0000)
  60 N      1.752375    1.011407   15.360346    ( 0.0000,  0.0000,  0.0000)
  61 N     -0.000435    4.049710   15.230932    ( 0.0000,  0.0000,  0.0000)
  62 N      5.259947    1.012593   15.230932    ( 0.0000,  0.0000,  0.0000)
  63 N      3.506570    4.049878   15.230951    ( 0.0000,  0.0000,  0.0000)
  64 Li     1.741643    0.992285   17.192375    ( 0.0000,  0.0000,  0.0000)

Unit cell:
           periodic     x           y           z      points  spacing
  1. axis:    yes    7.013420    0.000000    0.000000    40     0.1518
  2. axis:    yes   -3.506760    6.073886    0.000000    40     0.1518
  3. axis:    yes    0.000000    0.000000   29.936001   160     0.1871

  Lengths:   7.013420   7.013520  29.936001
  Angles:   90.000000  90.000000 120.000000

Effective grid spacing dv^(1/3) = 0.1708

                     log10-error:    total        iterations:
           time      wfs    density  energy       fermi  poisson
iter:   1  20:17:08  -4.13         -234.499203    3             
iter:   2  20:17:26  -4.82  -2.62  -234.534834    3             
iter:   3  20:17:44  -5.42  -2.36  -234.504839    3             
iter:   4  20:18:02  -5.51  -2.87  -234.499382    3             
iter:   5  20:18:20  -5.48  -3.03  -234.502166    3             
iter:   6  20:18:38  -5.60  -3.19  -234.500740    2             
iter:   7  20:18:56  -6.00  -3.66  -234.501081    3             
iter:   8  20:19:14  -6.60  -3.53  -234.500283    3             
iter:   9  20:19:32  -7.52  -4.12  -234.500384    2             

Converged after 9 iterations.

Dipole moment: (-2.366424, 0.285039, -11.355609) |e|*Ang

Energy contributions relative to reference atoms: (reference = -33644.147259)

Kinetic:       +261.878297
Potential:     -192.952234
External:        +0.000000
XC:            -302.093434
Entropy (-ST):   -0.095860
Local:           -1.285083
--------------------------
Free energy:   -234.548314
Extrapolated:  -234.500384

Fermi level: -0.29893

Showing only first 2 kpts
 Kpt  Band  Eigenvalues  Occupancy
  0    62     -0.42736    0.07430
  0    63     -0.13594    0.00296
  0    64     -0.13590    0.00296
  0    65      0.19716    0.00000

  1    62     -0.46845    0.15478
  1    63     -0.37148    0.12962
  1    64     -0.24771    0.04226
  1    65      0.34130    0.00000


No gap

Forces in eV/Ang:
  0 Li   -0.00007    0.00005   -0.04014
  1 Li   -0.00007    0.00005   -0.04001
  2 Li   -0.00007    0.00005   -0.04001
  3 Li   -0.00007    0.00005   -0.04001
  4 Li    0.00031    0.00069    0.26039
  5 Li    0.00066   -0.00036    0.00983
  6 Li   -0.00076    0.00046    0.00983
  7 Li   -0.00076   -0.00118    0.00986
  8 Li   -0.00446    0.00126   -0.12393
  9 Li   -0.00063   -0.00436   -0.11463
 10 Li    0.00406    0.00176   -0.13321
 11 Li   -0.00126   -0.00208    0.04705
 12 Li    0.00317   -0.00312   -0.12370
 13 Li   -0.00067    0.00450   -0.13331
 14 Li   -0.00362   -0.00262   -0.11476
 15 Li   -0.00129   -0.00206    0.04706
 16 Li    0.00013   -0.00019   -0.03627
 17 Li    0.00001    0.00003   -0.03627
 18 Li   -0.00012   -0.00019   -0.03627
 19 Li    0.00001   -0.00012   -0.03611
 20 Li   -0.00020    0.00014   -0.03627
 21 Li   -0.00007   -0.00007   -0.03627
 22 Li    0.00005    0.00014   -0.03627
 23 Li   -0.00007    0.00007   -0.03611
 24 Li   -0.00002    0.00001   -0.03188
 25 Li   -0.00002    0.00001   -0.03167
 26 Li   -0.00002    0.00001   -0.03167
 27 Li   -0.00002    0.00001   -0.03167
 28 Li    0.00165   -0.00098    0.01323
 29 Li   -0.00007    0.00200    0.01323
 30 Li   -0.00180   -0.00098    0.01323
 31 Li   -0.00007    0.00001    0.01488
 32 Li   -0.00188    0.00120    0.01323
 33 Li   -0.00016   -0.00179    0.01323
 34 Li    0.00157    0.00119    0.01323
 35 Li   -0.00016    0.00020    0.01488
 36 Li   -0.00006    0.00001    0.02571
 37 Li   -0.00006    0.00003    0.00031
 38 Li   -0.00005    0.00002    0.00031
 39 Li   -0.00005    0.00003    0.00032
 40 Li   -0.00013    0.00007    0.00229
 41 Li   -0.00009   -0.00000    0.00225
 42 Li   -0.00004    0.00007    0.00233
 43 Li   -0.00008    0.00006    0.00574
 44 Li   -0.00004    0.00002    0.00229
 45 Li   -0.00009    0.00010    0.00233
 46 Li   -0.00013    0.00002    0.00225
 47 Li   -0.00008    0.00006    0.00574
 48 N    -0.00018    0.00018    0.06329
 49 N    -0.00018    0.00018    0.04937
 50 N    -0.00018    0.00018    0.04937
 51 N    -0.00018    0.00018    0.04938
 52 N    -0.00005   -0.00004    0.05935
 53 N    -0.00005   -0.00005    0.04593
 54 N    -0.00005   -0.00005    0.04593
 55 N    -0.00005   -0.00005    0.04593
 56 N    -0.00012   -0.00001    0.08197
 57 N    -0.00012    0.00008   -0.00136
 58 N    -0.00004    0.00003   -0.00136
 59 N    -0.00004    0.00012   -0.00136
 60 N     0.00046    0.00106    0.05435
 61 N     0.00111   -0.00120   -0.06054
 62 N    -0.00173    0.00049   -0.06055
 63 N    -0.00176   -0.00281   -0.06050
 64 Li    0.00585    0.01039    0.18688

System changes: positions 

Initializing position-dependent things.

Density initialized from wave functions
                                         
                                         
                                         
                                         
                                         
                                         
           Li   Li Li                    
              N   Li   N  Li             
             Li      Li                  
              LiN   Li LiN  Li           
                                         
           Li   Li Li    Li              
              N   Li   N  Li             
             Li      Li                  
              LiN   Li LiN  Li           
                                         
           Li N Li Li  N Li              
                  Li      Li             
             Li N    Li  N               
              Li    Li Li   Li           
                                         
           Li N Li Li  N Li              
                  Li      Li             
             Li N    Li  N               
              Li    Li Li   Li           
                                         
                Li       Li              
                                         
                                         
                                         
                                         

Positions:
   0 Li     1.753189    1.012426    1.530029    ( 0.0000,  0.0000,  0.0000)
   1 Li    -0.000191    4.049369    1.530029    ( 0.0000,  0.0000,  0.0000)
   2 Li     5.259899    1.012426    1.530029    ( 0.0000,  0.0000,  0.0000)
   3 Li     3.506519    4.049369    1.530029    ( 0.0000,  0.0000,  0.0000)
   4 Li     1.753078    1.012514   13.356160    ( 0.0000,  0.0000,  0.0000)
   5 Li    -0.000244    4.049405   13.298973    ( 0.0000,  0.0000,  0.0000)
   6 Li     5.259710    1.012537   13.298973    ( 0.0000,  0.0000,  0.0000)
   7 Li     3.506333    4.049326   13.298982    ( 0.0000,  0.0000,  0.0000)
   8 Li     3.530222   -0.013570   15.353353    ( 0.0000,  0.0000,  0.0000)
   9 Li     1.752996    3.063852   15.356735    ( 0.0000,  0.0000,  0.0000)
  10 Li     6.988553   -0.013966   15.349964    ( 0.0000,  0.0000,  0.0000)
  11 Li     5.259455    3.036671   15.415945    ( 0.0000,  0.0000,  0.0000)
  12 Li    -0.024171    2.038572   15.353436    ( 0.0000,  0.0000,  0.0000)
  13 Li    -1.753727    5.033419   15.349928    ( 0.0000,  0.0000,  0.0000)
  14 Li     3.529506    2.038179   15.356689    ( 0.0000,  0.0000,  0.0000)
  15 Li     1.752713    5.061299   15.415945    ( 0.0000,  0.0000,  0.0000)
  16 Li     3.506465    0.000182    3.465092    ( 0.0000,  0.0000,  0.0000)
  17 Li     1.753085    3.037125    3.465092    ( 0.0000,  0.0000,  0.0000)
  18 Li     7.013175    0.000182    3.465092    ( 0.0000,  0.0000,  0.0000)
  19 Li     5.259795    3.037125    3.465092    ( 0.0000,  0.0000,  0.0000)
  20 Li    -0.000262    2.024791    3.465092    ( 0.0000,  0.0000,  0.0000)
  21 Li    -1.753642    5.061734    3.465092    ( 0.0000,  0.0000,  0.0000)
  22 Li     3.506448    2.024791    3.465092    ( 0.0000,  0.0000,  0.0000)
  23 Li     1.753068    5.061734    3.465092    ( 0.0000,  0.0000,  0.0000)
  24 Li     1.753084    1.012487    5.431887    ( 0.0000,  0.0000,  0.0000)
  25 Li    -0.000296    4.049430    5.431887    ( 0.0000,  0.0000,  0.0000)
  26 Li     5.259794    1.012487    5.431887    ( 0.0000,  0.0000,  0.0000)
  27 Li     3.506414    4.049430    5.431887    ( 0.0000,  0.0000,  0.0000)
  28 Li     3.506429    0.000182    7.378027    ( 0.0000,  0.0000,  0.0000)
  29 Li     1.753049    3.037125    7.378027    ( 0.0000,  0.0000,  0.0000)
  30 Li     7.013139    0.000182    7.378027    ( 0.0000,  0.0000,  0.0000)
  31 Li     5.259759    3.037125    7.378027    ( 0.0000,  0.0000,  0.0000)
  32 Li    -0.000297    2.024791    7.378027    ( 0.0000,  0.0000,  0.0000)
  33 Li    -1.753677    5.061734    7.378027    ( 0.0000,  0.0000,  0.0000)
  34 Li     3.506413    2.024791    7.378027    ( 0.0000,  0.0000,  0.0000)
  35 Li     1.753033    5.061734    7.378027    ( 0.0000,  0.0000,  0.0000)
  36 Li     1.753069    1.012494    9.356883    ( 0.0000,  0.0000,  0.0000)
  37 Li    -0.000312    4.049435    9.352928    ( 0.0000,  0.0000,  0.0000)
  38 Li     5.259778    1.012492    9.352928    ( 0.0000,  0.0000,  0.0000)
  39 Li     3.506398    4.049435    9.352928    ( 0.0000,  0.0000,  0.0000)
  40 Li     3.507854   -0.000647   11.316691    ( 0.0000,  0.0000,  0.0000)
  41 Li     1.753024    3.038812   11.316659    ( 0.0000,  0.0000,  0.0000)
  42 Li     7.011666   -0.000645   11.316719    ( 0.0000,  0.0000,  0.0000)
  43 Li     5.259737    3.037139   11.319401    ( 0.0000,  0.0000,  0.0000)
  44 Li    -0.001780    2.025653   11.316689    ( 0.0000,  0.0000,  0.0000)
  45 Li    -1.753709    5.060087   11.316719    ( 0.0000,  0.0000,  0.0000)
  46 Li     3.507834    2.025654   11.316659    ( 0.0000,  0.0000,  0.0000)
  47 Li     1.753003    5.061764   11.319401    ( 0.0000,  0.0000,  0.0000)
  48 N      1.753084    1.012487    3.439048    ( 0.0000,  0.0000,  0.0000)
  49 N     -0.000296    4.049430    3.439048    ( 0.0000,  0.0000,  0.0000)
  50 N      5.259794    1.012487    3.439048    ( 0.0000,  0.0000,  0.0000)
  51 N      3.506414    4.049430    3.439048    ( 0.0000,  0.0000,  0.0000)
  52 N      1.753031    1.012517    7.360963    ( 0.0000,  0.0000,  0.0000)
  53 N     -0.000349    4.049460    7.360963    ( 0.0000,  0.0000,  0.0000)
  54 N      5.259741    1.012517    7.360963    ( 0.0000,  0.0000,  0.0000)
  55 N      3.506361    4.049460    7.360963    ( 0.0000,  0.0000,  0.0000)
  56 N      1.753021    1.012540   11.319258    ( 0.0000,  0.0000,  0.0000)
  57 N     -0.000361    4.049461   11.297166    ( 0.0000,  0.0000,  0.0000)
  58 N      5.259715    1.012526   11.297166    ( 0.0000,  0.0000,  0.0000)
  59 N      3.506335    4.049454   11.297169    ( 0.0000,  0.0000,  0.0000)
  60 N      1.752539    1.011736   15.363820    ( 0.0000,  0.0000,  0.0000)
  61 N     -0.000170    4.049531   15.222579    ( 0.0000,  0.0000,  0.0000)
  62 N      5.259641    1.012754   15.222579    ( 0.0000,  0.0000,  0.0000)
  63 N      3.506258    4.049373   15.222603    ( 0.0000,  0.0000,  0.0000)
  64 Li     1.742522    0.993844   17.230512    ( 0.0000,  0.0000,  0.0000)

Unit cell:
           periodic     x           y           z      points  spacing
  1. axis:    yes    7.013420    0.000000    0.000000    40     0.1518
  2. axis:    yes   -3.506760    6.073886    0.000000    40     0.1518
  3. axis:    yes    0.000000    0.000000   29.936001   160     0.1871

  Lengths:   7.013420   7.013520  29.936001
  Angles:   90.000000  90.000000 120.000000

Effective grid spacing dv^(1/3) = 0.1708

                     log10-error:    total        iterations:
           time      wfs    density  energy       fermi  poisson
iter:   1  20:20:08  -2.93         -234.569709    4             
iter:   2  20:20:26  -3.60  -2.01  -234.769575    32            
iter:   3  20:20:44  -4.32  -1.87  -234.572752    4             
iter:   4  20:21:02  -4.48  -2.22  -234.531161    3             
iter:   5  20:21:20  -4.86  -2.60  -234.527263    3             
iter:   6  20:21:38  -4.07  -2.71  -234.524579    3             
iter:   7  20:21:56  -5.03  -2.93  -234.522082    2             
iter:   8  20:22:14  -5.89  -3.20  -234.525200    2             
iter:   9  20:22:32  -5.64  -2.90  -234.520300    3             
iter:  10  20:22:50  -5.97  -3.39  -234.521105    3             
iter:  11  20:23:08  -7.12  -3.73  -234.520964    2             
iter:  12  20:23:26  -6.44  -3.80  -234.521057    2             
iter:  13  20:23:44  -7.53  -3.94  -234.520971    2             
iter:  14  20:24:03  -7.84  -4.00  -234.520922    2             
iter:  15  20:24:21  -7.69  -4.00  -234.521043    2             
iter:  16  20:24:39  -7.54  -4.12  -234.520958    2             

Converged after 16 iterations.

Dipole moment: (-2.363735, 0.286638, -11.342477) |e|*Ang

Energy contributions relative to reference atoms: (reference = -33644.147259)

Kinetic:       +261.503492
Potential:     -192.685276
External:        +0.000000
XC:            -302.002508
Entropy (-ST):   -0.096621
Local:           -1.288355
--------------------------
Free energy:   -234.569268
Extrapolated:  -234.520958

Fermi level: -0.29004

Showing only first 2 kpts
 Kpt  Band  Eigenvalues  Occupancy
  0    62     -0.41804    0.07426
  0    63     -0.12766    0.00299
  0    64     -0.12763    0.00299
  0    65      0.21122    0.00000

  1    62     -0.45929    0.15476
  1    63     -0.36245    0.12955
  1    64     -0.23974    0.04284
  1    65      0.35230    0.00000


No gap

Forces in eV/Ang:
  0 Li   -0.00007    0.00005   -0.03807
  1 Li   -0.00007    0.00005   -0.03791
  2 Li   -0.00007    0.00005   -0.03791
  3 Li   -0.00007    0.00005   -0.03791
  4 Li    0.00155    0.00291   -0.00425
  5 Li    0.00147   -0.00106   -0.07006
  6 Li   -0.00174    0.00082   -0.07007
  7 Li   -0.00176   -0.00290   -0.07007
  8 Li   -0.01766    0.00946   -0.06912
  9 Li   -0.00040   -0.02001   -0.06398
 10 Li    0.01721    0.00968   -0.07417
 11 Li    0.00040    0.00098    0.07560
 12 Li    0.01683   -0.01047   -0.06897
 13 Li   -0.00041    0.01984   -0.07422
 14 Li   -0.01732   -0.01027   -0.06407
 15 Li    0.00046    0.00094    0.07560
 16 Li    0.00016   -0.00021   -0.03534
 17 Li    0.00001    0.00006   -0.03534
 18 Li   -0.00015   -0.00021   -0.03534
 19 Li    0.00001   -0.00012   -0.03515
 20 Li   -0.00023    0.00016   -0.03534
 21 Li   -0.00007   -0.00011   -0.03534
 22 Li    0.00008    0.00016   -0.03534
 23 Li   -0.00007    0.00007   -0.03515
 24 Li   -0.00002    0.00001   -0.02924
 25 Li   -0.00002    0.00001   -0.02957
 26 Li   -0.00002    0.00001   -0.02957
 27 Li   -0.00002    0.00001   -0.02957
 28 Li    0.00157   -0.00094    0.01481
 29 Li   -0.00008    0.00192    0.01480
 30 Li   -0.00172   -0.00094    0.01481
 31 Li   -0.00008    0.00002    0.01600
 32 Li   -0.00181    0.00115    0.01481
 33 Li   -0.00016   -0.00170    0.01481
 34 Li    0.00149    0.00115    0.01480
 35 Li   -0.00016    0.00020    0.01600
 36 Li   -0.00008   -0.00003    0.04643
 37 Li   -0.00008    0.00004    0.00225
 38 Li   -0.00002    0.00000    0.00225
 39 Li   -0.00002    0.00008    0.00226
 40 Li   -0.01116    0.00637    0.02475
 41 Li   -0.00011   -0.01270    0.02474
 42 Li    0.01098    0.00640    0.02476
 43 Li   -0.00005    0.00011    0.00670
 44 Li    0.01093   -0.00638    0.02475
 45 Li   -0.00011    0.01280    0.02476
 46 Li   -0.01110   -0.00636    0.02474
 47 Li   -0.00004    0.00011    0.00670
 48 N    -0.00018    0.00017    0.06259
 49 N    -0.00018    0.00017    0.04730
 50 N    -0.00018    0.00018    0.04730
 51 N    -0.00018    0.00018    0.04731
 52 N    -0.00004   -0.00003    0.06901
 53 N    -0.00004   -0.00005    0.04079
 54 N    -0.00006   -0.00004    0.04079
 55 N    -0.00006   -0.00006    0.04079
 56 N    -0.00028   -0.00028    0.06662
 57 N    -0.00019    0.00015   -0.00734
 58 N     0.00003    0.00002   -0.00734
 59 N     0.00004    0.00027   -0.00733
 60 N    -0.00255   -0.00437    0.22966
 61 N    -0.00265   -0.00061   -0.04332
 62 N     0.00058   -0.00255   -0.04333
 63 N     0.00061    0.00122   -0.04340
 64 Li    0.00437    0.00778   -0.12245

System changes: positions 

Initializing position-dependent things.

Density initialized from wave functions
                                         
                                         
                                         
                                         
                                         
                                         
           Li   Li Li                    
              N   Li   N  Li             
             Li      Li                  
              LiN   Li LiN  Li           
                                         
           Li   Li Li    Li              
              N   Li   N  Li             
             Li      Li                  
              LiN   Li LiN  Li           
                                         
           Li N Li Li  N Li              
                  Li      Li             
             Li N    Li  N               
              Li    Li Li   Li           
                                         
           Li N Li Li  N Li              
                  Li      Li             
             Li N    Li  N               
              Li    Li Li   Li           
                                         
                Li       Li              
                                         
                                         
                                         
                                         

Positions:
   0 Li     1.753189    1.012426    1.530029    ( 0.0000,  0.0000,  0.0000)
   1 Li    -0.000191    4.049369    1.530029    ( 0.0000,  0.0000,  0.0000)
   2 Li     5.259899    1.012426    1.530029    ( 0.0000,  0.0000,  0.0000)
   3 Li     3.506519    4.049369    1.530029    ( 0.0000,  0.0000,  0.0000)
   4 Li     1.753107    1.012574   13.368340    ( 0.0000,  0.0000,  0.0000)
   5 Li    -0.000201    4.049379   13.298960    ( 0.0000,  0.0000,  0.0000)
   6 Li     5.259659    1.012566   13.298959    ( 0.0000,  0.0000,  0.0000)
   7 Li     3.506281    4.049245   13.298970    ( 0.0000,  0.0000,  0.0000)
   8 Li     3.531204   -0.014192   15.345151    ( 0.0000,  0.0000,  0.0000)
   9 Li     1.752967    3.064971   15.349095    ( 0.0000,  0.0000,  0.0000)
  10 Li     6.987509   -0.014591   15.341202    ( 0.0000,  0.0000,  0.0000)
  11 Li     5.259400    3.036583   15.418680    ( 0.0000,  0.0000,  0.0000)
  12 Li    -0.025209    2.039118   15.345248    ( 0.0000,  0.0000,  0.0000)
  13 Li    -1.753756    5.032208   15.341159    ( 0.0000,  0.0000,  0.0000)
  14 Li     3.530479    2.038721   15.349041    ( 0.0000,  0.0000,  0.0000)
  15 Li     1.752656    5.061212   15.418680    ( 0.0000,  0.0000,  0.0000)
  16 Li     3.506465    0.000182    3.465092    ( 0.0000,  0.0000,  0.0000)
  17 Li     1.753085    3.037125    3.465092    ( 0.0000,  0.0000,  0.0000)
  18 Li     7.013175    0.000182    3.465092    ( 0.0000,  0.0000,  0.0000)
  19 Li     5.259795    3.037125    3.465092    ( 0.0000,  0.0000,  0.0000)
  20 Li    -0.000262    2.024791    3.465092    ( 0.0000,  0.0000,  0.0000)
  21 Li    -1.753642    5.061734    3.465092    ( 0.0000,  0.0000,  0.0000)
  22 Li     3.506448    2.024791    3.465092    ( 0.0000,  0.0000,  0.0000)
  23 Li     1.753068    5.061734    3.465092    ( 0.0000,  0.0000,  0.0000)
  24 Li     1.753084    1.012487    5.431887    ( 0.0000,  0.0000,  0.0000)
  25 Li    -0.000296    4.049430    5.431887    ( 0.0000,  0.0000,  0.0000)
  26 Li     5.259794    1.012487    5.431887    ( 0.0000,  0.0000,  0.0000)
  27 Li     3.506414    4.049430    5.431887    ( 0.0000,  0.0000,  0.0000)
  28 Li     3.506429    0.000182    7.378027    ( 0.0000,  0.0000,  0.0000)
  29 Li     1.753049    3.037125    7.378027    ( 0.0000,  0.0000,  0.0000)
  30 Li     7.013139    0.000182    7.378027    ( 0.0000,  0.0000,  0.0000)
  31 Li     5.259759    3.037125    7.378027    ( 0.0000,  0.0000,  0.0000)
  32 Li    -0.000297    2.024791    7.378027    ( 0.0000,  0.0000,  0.0000)
  33 Li    -1.753677    5.061734    7.378027    ( 0.0000,  0.0000,  0.0000)
  34 Li     3.506413    2.024791    7.378027    ( 0.0000,  0.0000,  0.0000)
  35 Li     1.753033    5.061734    7.378027    ( 0.0000,  0.0000,  0.0000)
  36 Li     1.753065    1.012494    9.358507    ( 0.0000,  0.0000,  0.0000)
  37 Li    -0.000316    4.049437    9.352997    ( 0.0000,  0.0000,  0.0000)
  38 Li     5.259775    1.012493    9.352997    ( 0.0000,  0.0000,  0.0000)
  39 Li     3.506395    4.049438    9.352998    ( 0.0000,  0.0000,  0.0000)
  40 Li     3.507811   -0.000623   11.316865    ( 0.0000,  0.0000,  0.0000)
  41 Li     1.753018    3.038772   11.316829    ( 0.0000,  0.0000,  0.0000)
  42 Li     7.011699   -0.000621   11.316896    ( 0.0000,  0.0000,  0.0000)
  43 Li     5.259733    3.037144   11.319627    ( 0.0000,  0.0000,  0.0000)
  44 Li    -0.001749    2.025634   11.316863    ( 0.0000,  0.0000,  0.0000)
  45 Li    -1.753715    5.060134   11.316897    ( 0.0000,  0.0000,  0.0000)
  46 Li     3.507791    2.025635   11.316830    ( 0.0000,  0.0000,  0.0000)
  47 Li     1.752999    5.061769   11.319627    ( 0.0000,  0.0000,  0.0000)
  48 N      1.753084    1.012487    3.439048    ( 0.0000,  0.0000,  0.0000)
  49 N     -0.000296    4.049430    3.439048    ( 0.0000,  0.0000,  0.0000)
  50 N      5.259794    1.012487    3.439048    ( 0.0000,  0.0000,  0.0000)
  51 N      3.506414    4.049430    3.439048    ( 0.0000,  0.0000,  0.0000)
  52 N      1.753031    1.012517    7.360963    ( 0.0000,  0.0000,  0.0000)
[...]
  3. axis:    yes    0.000000    0.000000   29.936001   160     0.1871

  Lengths:   7.013420   7.013520  29.936001
  Angles:   90.000000  90.000000 120.000000

Effective grid spacing dv^(1/3) = 0.1708

                     log10-error:    total        iterations:
           time      wfs    density  energy       fermi  poisson
iter:   1  22:50:00  -4.43         -234.897518    3             
iter:   2  22:50:18  -4.46  -2.50  -234.948836    3             
iter:   3  22:50:36  -4.99  -2.27  -234.899701    3             
iter:   4  22:50:54  -5.16  -2.96  -234.895118    3             
iter:   5  22:51:12  -5.52  -2.74  -234.899009    2             
iter:   6  22:51:30  -6.94  -3.09  -234.897966    2             
iter:   7  22:51:48  -6.78  -3.26  -234.896940    2             
iter:   8  22:52:06  -6.79  -3.62  -234.896495    2             
iter:   9  22:52:25  -7.27  -4.08  -234.896602    2             

Converged after 9 iterations.

Dipole moment: (-2.008487, 0.863477, -11.331730) |e|*Ang

Energy contributions relative to reference atoms: (reference = -33644.147259)

Kinetic:       +256.396195
Potential:     -189.810609
External:        +0.000000
XC:            -300.162558
Entropy (-ST):   -0.075983
Local:           -1.281640
--------------------------
Free energy:   -234.934594
Extrapolated:  -234.896602

Fermi level: -0.19827

Showing only first 2 kpts
 Kpt  Band  Eigenvalues  Occupancy
  0    62     -0.56283    0.07995
  0    63      0.02059    0.00099
  0    64      0.02065    0.00099
  0    65      0.23039    0.00002

  1    62     -0.63553    0.15997
  1    63     -0.26155    0.12480
  1    64     -0.08517    0.01509
  1    65      0.41550    0.00000


No gap

Forces in eV/Ang:
  0 Li   -0.00007    0.00005   -0.05375
  1 Li   -0.00007    0.00005   -0.05392
  2 Li   -0.00007    0.00005   -0.05392
  3 Li   -0.00007    0.00005   -0.05392
  4 Li   -0.00264   -0.00432    0.01674
  5 Li   -0.00015    0.00200   -0.00143
  6 Li    0.00167    0.00095   -0.00144
  7 Li    0.00168    0.00305   -0.00137
  8 Li    0.00054    0.00153    0.00928
  9 Li    0.00061   -0.00033    0.00963
 10 Li   -0.00037    0.00088    0.00901
 11 Li    0.00352    0.00653    0.01717
 12 Li    0.00098    0.00127    0.00935
 13 Li    0.00067    0.00014    0.00896
 14 Li   -0.00078    0.00057    0.00962
 15 Li    0.00348    0.00656    0.01717
 16 Li   -0.00005   -0.00009   -0.04329
 17 Li    0.00001   -0.00018   -0.04327
 18 Li    0.00006   -0.00009   -0.04332
 19 Li    0.00001   -0.00011   -0.04327
 20 Li   -0.00002    0.00004   -0.04329
 21 Li   -0.00008    0.00013   -0.04332
 22 Li   -0.00013    0.00004   -0.04326
 23 Li   -0.00007    0.00008   -0.04327
 24 Li    0.00005    0.00011   -0.06162
 25 Li    0.00005   -0.00003   -0.05399
 26 Li   -0.00008    0.00004   -0.05400
 27 Li   -0.00007   -0.00011   -0.05400
 28 Li    0.00358   -0.00248    0.00113
 29 Li   -0.00033    0.00482   -0.00060
 30 Li   -0.00382   -0.00223    0.00295
 31 Li   -0.00000    0.00028    0.01009
 32 Li   -0.00434    0.00224    0.00120
 33 Li   -0.00040   -0.00405    0.00292
 34 Li    0.00395    0.00247   -0.00064
 35 Li   -0.00010    0.00047    0.01009
 36 Li   -0.00261   -0.00462   -0.05689
 37 Li   -0.00224    0.00178   -0.01265
 38 Li    0.00258   -0.00099   -0.01262
 39 Li    0.00258    0.00457   -0.01259
 40 Li   -0.01270    0.00772    0.01469
 41 Li    0.00010   -0.01465    0.01113
 42 Li    0.01271    0.00761    0.01811
 43 Li   -0.00041   -0.00055    0.00620
 44 Li    0.01293   -0.00712    0.01460
 45 Li    0.00015    0.01483    0.01815
 46 Li   -0.01284   -0.00723    0.01118
 47 Li   -0.00036   -0.00061    0.00620
 48 N    -0.00021    0.00014    0.08481
 49 N    -0.00021    0.00019    0.09646
 50 N    -0.00016    0.00017    0.09644
 51 N    -0.00016    0.00022    0.09646
 52 N     0.00064    0.00124   -0.04745
 53 N     0.00049   -0.00036    0.09346
 54 N    -0.00080    0.00032    0.09343
 55 N    -0.00074   -0.00114    0.09342
 56 N     0.00044    0.00094    0.00179
 57 N     0.00113   -0.00025    0.00689
 58 N    -0.00083    0.00093    0.00687
 59 N    -0.00086   -0.00139    0.00696
 60 N     0.00140    0.00245    0.00710
 61 N     0.00082   -0.00673   -0.01393
 62 N    -0.00625   -0.00281   -0.01397
 63 N    -0.00612   -0.01076   -0.01385
 64 Li   -0.00236   -0.00431   -0.00620

System changes: positions 

Initializing position-dependent things.

Density initialized from wave functions
                                         
                                         
                                         
                                         
                                         
                   Li                    
          Li  N Li     N  Li             
                  Li                     
             Li       Li N               
              LiN   Li Li   Li           
                                         
           Li N Li Li  N Li              
                  Li      Li             
             Li      Li  N               
              LiN   Li Li   Li           
                                         
           Li N Li Li  N Li              
                  Li      Li             
             Li N    Li  N               
              Li    Li Li   Li           
           Li      Li                    
              N Li     N Li              
             Li   Li Li   Li             
                N        N               
              Li    Li Li   Li           
                                         
                Li       Li              
                                         
                                         
                                         
                                         

Positions:
   0 Li     1.753189    1.012426    1.530029    ( 0.0000,  0.0000,  0.0000)
   1 Li    -0.000191    4.049369    1.530029    ( 0.0000,  0.0000,  0.0000)
   2 Li     5.259899    1.012426    1.530029    ( 0.0000,  0.0000,  0.0000)
   3 Li     3.506519    4.049369    1.530029    ( 0.0000,  0.0000,  0.0000)
   4 Li     1.755351    1.018379   13.171144    ( 0.0000,  0.0000,  0.0000)
   5 Li     0.003635    4.048314   13.306384    ( 0.0000,  0.0000,  0.0000)
   6 Li     5.255783    1.016279   13.306366    ( 0.0000,  0.0000,  0.0000)
   7 Li     3.502139    4.043882   13.306383    ( 0.0000,  0.0000,  0.0000)
   8 Li     3.581066   -0.042217   15.120381    ( 0.0000,  0.0000,  0.0000)
   9 Li     1.752482    3.122924   15.131024    ( 0.0000,  0.0000,  0.0000)
  10 Li     6.935788   -0.043132   15.110632    ( 0.0000,  0.0000,  0.0000)
  11 Li     5.260393    3.040379   16.096560    ( 0.0000,  0.0000,  0.0000)
  12 Li    -0.075881    2.069131   15.121161    ( 0.0000,  0.0000,  0.0000)
  13 Li    -1.754214    4.974010   15.110283    ( 0.0000,  0.0000,  0.0000)
  14 Li     3.579380    2.068242   15.130616    ( 0.0000,  0.0000,  0.0000)
  15 Li     1.753704    5.064969   16.096566    ( 0.0000,  0.0000,  0.0000)
  16 Li     3.506465    0.000182    3.465092    ( 0.0000,  0.0000,  0.0000)
  17 Li     1.753085    3.037125    3.465092    ( 0.0000,  0.0000,  0.0000)
  18 Li     7.013175    0.000182    3.465092    ( 0.0000,  0.0000,  0.0000)
  19 Li     5.259795    3.037125    3.465092    ( 0.0000,  0.0000,  0.0000)
  20 Li    -0.000262    2.024791    3.465092    ( 0.0000,  0.0000,  0.0000)
  21 Li    -1.753642    5.061734    3.465092    ( 0.0000,  0.0000,  0.0000)
  22 Li     3.506448    2.024791    3.465092    ( 0.0000,  0.0000,  0.0000)
  23 Li     1.753068    5.061734    3.465092    ( 0.0000,  0.0000,  0.0000)
  24 Li     1.753084    1.012487    5.431887    ( 0.0000,  0.0000,  0.0000)
  25 Li    -0.000296    4.049430    5.431887    ( 0.0000,  0.0000,  0.0000)
  26 Li     5.259794    1.012487    5.431887    ( 0.0000,  0.0000,  0.0000)
  27 Li     3.506414    4.049430    5.431887    ( 0.0000,  0.0000,  0.0000)
  28 Li     3.506429    0.000182    7.378027    ( 0.0000,  0.0000,  0.0000)
  29 Li     1.753049    3.037125    7.378027    ( 0.0000,  0.0000,  0.0000)
  30 Li     7.013139    0.000182    7.378027    ( 0.0000,  0.0000,  0.0000)
  31 Li     5.259759    3.037125    7.378027    ( 0.0000,  0.0000,  0.0000)
  32 Li    -0.000297    2.024791    7.378027    ( 0.0000,  0.0000,  0.0000)
  33 Li    -1.753677    5.061734    7.378027    ( 0.0000,  0.0000,  0.0000)
  34 Li     3.506413    2.024791    7.378027    ( 0.0000,  0.0000,  0.0000)
  35 Li     1.753033    5.061734    7.378027    ( 0.0000,  0.0000,  0.0000)
  36 Li     1.753586    1.014078    9.313705    ( 0.0000,  0.0000,  0.0000)
  37 Li    -0.000000    4.049304    9.353577    ( 0.0000,  0.0000,  0.0000)
  38 Li     5.258847    1.012996    9.353567    ( 0.0000,  0.0000,  0.0000)
  39 Li     3.505534    4.048548    9.353559    ( 0.0000,  0.0000,  0.0000)
  40 Li     3.509157   -0.001333   11.267509    ( 0.0000,  0.0000,  0.0000)
  41 Li     1.752455    3.041797   11.266576    ( 0.0000,  0.0000,  0.0000)
  42 Li     7.009565   -0.001135   11.268104    ( 0.0000,  0.0000,  0.0000)
  43 Li     5.259541    3.038212   11.400256    ( 0.0000,  0.0000,  0.0000)
  44 Li    -0.004242    2.027141   11.267369    ( 0.0000,  0.0000,  0.0000)
  45 Li    -1.754277    5.058728   11.268208    ( 0.0000,  0.0000,  0.0000)
  46 Li     3.509499    2.027338   11.266619    ( 0.0000,  0.0000,  0.0000)
  47 Li     1.752804    5.062838   11.400270    ( 0.0000,  0.0000,  0.0000)
  48 N      1.753084    1.012487    3.439048    ( 0.0000,  0.0000,  0.0000)
  49 N     -0.000296    4.049430    3.439048    ( 0.0000,  0.0000,  0.0000)
  50 N      5.259794    1.012487    3.439048    ( 0.0000,  0.0000,  0.0000)
  51 N      3.506414    4.049430    3.439048    ( 0.0000,  0.0000,  0.0000)
  52 N      1.753031    1.012517    7.360963    ( 0.0000,  0.0000,  0.0000)
  53 N     -0.000349    4.049460    7.360963    ( 0.0000,  0.0000,  0.0000)
  54 N      5.259741    1.012517    7.360963    ( 0.0000,  0.0000,  0.0000)
  55 N      3.506361    4.049460    7.360963    ( 0.0000,  0.0000,  0.0000)
  56 N      1.752807    1.013601   11.221644    ( 0.0000,  0.0000,  0.0000)
  57 N     -0.000482    4.050016   11.307643    ( 0.0000,  0.0000,  0.0000)
  58 N      5.259051    1.013409   11.307628    ( 0.0000,  0.0000,  0.0000)
  59 N      3.505658    4.049701   11.307626    ( 0.0000,  0.0000,  0.0000)
  60 N      1.752214    1.013039   15.077173    ( 0.0000,  0.0000,  0.0000)
  61 N     -0.000344    4.051505   15.292003    ( 0.0000,  0.0000,  0.0000)
  62 N      5.259765    1.014586   15.291990    ( 0.0000,  0.0000,  0.0000)
  63 N      3.506368    4.051526   15.292055    ( 0.0000,  0.0000,  0.0000)
  64 Li     1.735976    0.982412   16.924697    ( 0.0000,  0.0000,  0.0000)

Unit cell:
           periodic     x           y           z      points  spacing
  1. axis:    yes    7.013420    0.000000    0.000000    40     0.1518
  2. axis:    yes   -3.506760    6.073886    0.000000    40     0.1518
  3. axis:    yes    0.000000    0.000000   29.936001   160     0.1871

  Lengths:   7.013420   7.013520  29.936001
  Angles:   90.000000  90.000000 120.000000

Effective grid spacing dv^(1/3) = 0.1708

                     log10-error:    total        iterations:
           time      wfs    density  energy       fermi  poisson
iter:   1  22:53:00  -4.55         -234.902301    3             
iter:   2  22:53:18  -4.16  -2.36  -234.978812    4             
iter:   3  22:53:36  -4.78  -2.18  -234.905408    3             
iter:   4  22:53:54  -4.91  -2.69  -234.895303    3             
iter:   5  22:54:13  -5.58  -2.75  -234.899564    2             
iter:   6  22:54:31  -6.55  -3.05  -234.898568    2             
iter:   7  22:54:49  -6.95  -3.19  -234.897018    2             
iter:   8  22:55:07  -7.08  -3.74  -234.896609    2             
iter:   9  22:55:25  -7.18  -4.11  -234.896804    2             

Converged after 9 iterations.

Dipole moment: (-2.011758, 0.867139, -11.330674) |e|*Ang

Energy contributions relative to reference atoms: (reference = -33644.147259)

Kinetic:       +256.389829
Potential:     -189.808636
External:        +0.000000
XC:            -300.157021
Entropy (-ST):   -0.076004
Local:           -1.282975
--------------------------
Free energy:   -234.934806
Extrapolated:  -234.896804

Fermi level: -0.19773

Showing only first 2 kpts
 Kpt  Band  Eigenvalues  Occupancy
  0    62     -0.55979    0.07994
  0    63      0.02097    0.00100
  0    64      0.02103    0.00099
  0    65      0.23073    0.00002

  1    62     -0.63590    0.15997
  1    63     -0.26116    0.12488
  1    64     -0.08466    0.01510
  1    65      0.41586    0.00000


No gap

Forces in eV/Ang:
  0 Li   -0.00007    0.00005   -0.05378
  1 Li   -0.00007    0.00005   -0.05398
  2 Li   -0.00007    0.00005   -0.05398
  3 Li   -0.00007    0.00005   -0.05398
  4 Li   -0.00196   -0.00314    0.01820
  5 Li    0.00041    0.00149   -0.00384
  6 Li    0.00096    0.00118   -0.00385
  7 Li    0.00096    0.00181   -0.00378
  8 Li   -0.00366    0.00264    0.00432
  9 Li    0.00015   -0.00529    0.00495
 10 Li    0.00284    0.00202    0.00382
 11 Li    0.00253    0.00476    0.01465
 12 Li    0.00401   -0.00178    0.00442
 13 Li    0.00013    0.00351    0.00375
 14 Li   -0.00482   -0.00239    0.00492
 15 Li    0.00251    0.00478    0.01465
 16 Li   -0.00003   -0.00010   -0.04360
 17 Li    0.00001   -0.00016   -0.04358
 18 Li    0.00005   -0.00010   -0.04363
 19 Li    0.00001   -0.00011   -0.04352
 20 Li   -0.00004    0.00005   -0.04360
 21 Li   -0.00008    0.00012   -0.04362
 22 Li   -0.00011    0.00005   -0.04358
 23 Li   -0.00007    0.00008   -0.04352
 24 Li    0.00005    0.00011   -0.06208
 25 Li    0.00005   -0.00003   -0.05431
 26 Li   -0.00008    0.00004   -0.05431
 27 Li   -0.00007   -0.00011   -0.05431
 28 Li    0.00418   -0.00274    0.00012
 29 Li   -0.00030    0.00544   -0.00138
 30 Li   -0.00442   -0.00254    0.00171
 31 Li   -0.00003    0.00024    0.00960
 32 Li   -0.00487    0.00262    0.00019
 33 Li   -0.00037   -0.00472    0.00168
 34 Li    0.00447    0.00282   -0.00142
 35 Li   -0.00012    0.00043    0.00959
 36 Li   -0.00235   -0.00415   -0.02863
 37 Li   -0.00202    0.00160   -0.00432
 38 Li    0.00232   -0.00089   -0.00431
 39 Li    0.00231    0.00411   -0.00428
 40 Li   -0.00950    0.00608    0.01167
 41 Li    0.00020   -0.01129    0.00852
 42 Li    0.00943    0.00580    0.01471
 43 Li   -0.00034   -0.00047    0.00576
 44 Li    0.00993   -0.00515    0.01160
 45 Li    0.00022    0.01110    0.01475
 46 Li   -0.00997   -0.00544    0.00858
 47 Li   -0.00031   -0.00050    0.00576
 48 N    -0.00021    0.00015    0.08542
 49 N    -0.00021    0.00019    0.09702
 50 N    -0.00016    0.00016    0.09701
 51 N    -0.00016    0.00022    0.09702
 52 N     0.00052    0.00103   -0.05582
 53 N     0.00037   -0.00029    0.09180
 54 N    -0.00069    0.00025    0.09178
 55 N    -0.00063   -0.00093    0.09177
 56 N    -0.00028   -0.00036   -0.00624
 57 N     0.00018    0.00022    0.00767
 58 N     0.00002    0.00033    0.00766
 59 N     0.00001    0.00013    0.00774
 60 N    -0.00026   -0.00042    0.03013
 61 N    -0.00206   -0.00360   -0.00462
 62 N    -0.00214   -0.00371   -0.00466
 63 N    -0.00203   -0.00366   -0.00458
 64 Li   -0.00174   -0.00322   -0.01401

Timing:                                      incl.     excl.
-------------------------------------------------------------------
Density initialized from wave functions:   110.999   110.998   1.0% |
 Symmetrize density:                         0.001     0.001   0.0% |
Forces:                                    441.302   441.302   3.9% |-|
Hamiltonian:                                53.419     0.228   0.0% |
 Atomic:                                     4.703     0.682   0.0% |
  XC Correction:                             4.021     4.021   0.0% |
 Calculate atomic Hamiltonians:             37.873    37.873   0.3% |
 Communicate:                                1.980     1.980   0.0% |
 Initialize Hamiltonian:                     0.001     0.001   0.0% |
 Poisson:                                    0.099     0.099   0.0% |
 XC 3D grid:                                 8.534     8.534   0.1% |
LCAO initialization:                        10.336     0.083   0.0% |
 LCAO eigensolver:                           2.671     0.000   0.0% |
  Calculate projections:                     0.012     0.012   0.0% |
  DenseAtomicCorrection:                     0.015     0.015   0.0% |
  Distribute overlap matrix:                 0.713     0.713   0.0% |
  Orbital Layouts:                           0.094     0.094   0.0% |
  Potential matrix:                          1.833     1.833   0.0% |
  Sum over cells:                            0.005     0.005   0.0% |
 LCAO to grid:                               6.104     6.104   0.1% |
 Set positions (LCAO WFS):                   1.477     0.344   0.0% |
  Basic WFS set positions:                   0.003     0.003   0.0% |
  Basis functions set positions:             0.001     0.001   0.0% |
  P tci:                                     0.529     0.529   0.0% |
  ST tci:                                    0.245     0.245   0.0% |
  mktci:                                     0.355     0.355   0.0% |
PWDescriptor:                                0.396     0.396   0.0% |
Redistribute:                                0.085     0.085   0.0% |
SCF-cycle:                               10487.070  4595.650  40.8% |---------------|
 Davidson:                                4484.986  2357.590  20.9% |-------|
  Apply H:                                 161.832   158.280   1.4% ||
   HMM T:                                    3.552     3.552   0.0% |
  Subspace diag:                           483.651     0.104   0.0% |
   calc_h_matrix:                          268.292   104.699   0.9% |
    Apply H:                               163.594   159.818   1.4% ||
     HMM T:                                  3.776     3.776   0.0% |
   diagonalize:                              2.656     2.656   0.0% |
   rotate_psi:                             212.599   212.599   1.9% ||
  calc. matrices:                         1038.317   715.670   6.4% |--|
   Apply H:                                322.647   315.720   2.8% ||
    HMM T:                                   6.927     6.927   0.1% |
  diagonalize:                              24.231    24.231   0.2% |
  rotate_psi:                              419.366   419.366   3.7% ||
 Density:                                  702.389     0.013   0.0% |
  Atomic density matrices:                   4.415     4.415   0.0% |
  Mix:                                     512.257   512.257   4.5% |-|
  Multipole moments:                         0.531     0.531   0.0% |
  Pseudo density:                          185.173   185.156   1.6% ||
   Symmetrize density:                       0.017     0.017   0.0% |
 Hamiltonian:                              652.741     2.671   0.0% |
  Atomic:                                   58.124     7.978   0.1% |
   XC Correction:                           50.147    50.147   0.4% |
  Calculate atomic Hamiltonians:           473.656   473.656   4.2% |-|
  Communicate:                              23.969    23.969   0.2% |
  Poisson:                                   1.295     1.295   0.0% |
  XC 3D grid:                               93.026    93.026   0.8% |
 Orthonormalize:                            51.303     0.010   0.0% |
  calc_s_matrix:                             3.746     3.746   0.0% |
  inverse-cholesky:                          0.084     0.084   0.0% |
  projections:                              43.446    43.446   0.4% |
  rotate_psi_s:                              4.016     4.016   0.0% |
Set symmetry:                                0.002     0.002   0.0% |
Other:                                     157.484   157.484   1.4% ||
-------------------------------------------------------------------
Total:                                             11261.091 100.0%

Date: Mon Sep  6 22:55:35 2021
