
  ___ ___ ___ _ _ _  
 |   |   |_  | | | | 
 | | | | | . | | | | 
 |__ |  _|___|_____|  20.1.0
 |___|_|             

User:   jngwng01@n716022
Date:   Wed Sep  8 21:30:20 2021
Arch:   x86_64
Pid:    12686
Python: 3.8.5
gpaw:   /uls/7/gpaw-20.1.0/lib/python3.8/site-packages/gpaw-20.1.0-py3.8-linux-x86_64.egg/gpaw
_gpaw:  /uls/7/gpaw-20.1.0/lib/python3.8/site-packages/gpaw-20.1.0-py3.8-linux-x86_64.egg/
        _gpaw.cpython-38-x86_64-linux-gnu.so
ase:    /uls/7/gpaw-20.1.0/lib/python3.8/site-packages/ase-3.20.1-py3.8.egg/ase (version 3.20.1)
numpy:  /uls/7/gpaw-20.1.0/lib/python3.8/site-packages/numpy (version 1.19.2)
scipy:  /uls/7/gpaw-20.1.0/lib/python3.8/site-packages/scipy-1.5.2-py3.8-linux-x86_64.egg/scipy (version 1.5.2)
libxc:  4.3.4
units:  Angstrom and eV
cores: 64
OMP_NUM_THREADS: 1

Input parameters:
  convergence: {eigenstates: 1e-08}
  kpts: [3 3 1]
  mode: {ecut: 500.0,
         gammacentered: False,
         name: pw}
  occupations: {name: fermi-dirac,
                width: 0.02}
  random: True
  xc: PBE

System changes: positions, numbers, cell, pbc, initial_charges, initial_magmoms 

Initialize ...

Li-setup:
  name: Lithium
  id: 830b4218f175192f93f959cfc0aad614
  Z: 3
  valence: 1
  core: 2
  charge: 0.0
  file: /uls/7/gpaw-20.1.0/setups/gpaw-setups-0.9.20000/Li.PBE.gz
  compensation charges: gauss, rc=0.33, lmax=2
  cutoffs: 1.91(filt), 2.55(core),
  valence states:
                energy  radius
    2s(1.00)    -2.874   1.058
    2p(0.00)    -1.090   1.058
    *s          24.337   1.058

  Using partial waves for Li as LCAO basis

N-setup:
  name: Nitrogen
  id: f7500608b86eaa90eef8b1d9a670dc53
  Z: 7
  valence: 5
  core: 2
  charge: 0.0
  file: /uls/7/gpaw-20.1.0/setups/gpaw-setups-0.9.20000/N.PBE.gz
  compensation charges: gauss, rc=0.18, lmax=2
  cutoffs: 1.11(filt), 0.96(core),
  valence states:
                energy  radius
    2s(2.00)   -18.583   0.603
    2p(3.00)    -7.089   0.529
    *s           8.629   0.603
    *p          20.123   0.529
    *d           0.000   0.577

  Using partial waves for N as LCAO basis

Reference energy: -75445.846558

Spin-paired calculation

Occupation numbers:
  Fermi-Dirac: width=0.0200 eV

Convergence criteria:
  Maximum total energy change: 0.0005 eV / electron
  Maximum integral of absolute density change: 0.0001 electrons
  Maximum integral of absolute eigenstate change: 1e-08 eV^2
  Maximum number of iterations: 333

Symmetries present (total): 1

  ( 1  0  0)
  ( 0  1  0)
  ( 0  0  1)

9 k-points: 3 x 3 x 1 Monkhorst-Pack grid
5 k-points in the irreducible part of the Brillouin zone
       k-points in crystal coordinates                weights
   0:     0.00000000    0.00000000    0.00000000          1/9
   1:     0.00000000    0.33333333    0.00000000          2/9
   2:     0.33333333   -0.33333333    0.00000000          2/9
   3:     0.33333333    0.00000000    0.00000000          2/9
   4:     0.33333333    0.33333333    0.00000000          2/9

Wave functions: Plane wave expansion
  Cutoff energy: 500.000 eV
  Number of coefficients (min, max): 69207, 69295
  Pulay-stress correction: 0.000000 eV/Ang^3 (de/decut=0.000000)
  Using FFTW library
  ScaLapack parameters: grid=1x1, blocksize=None
  Wavefunction extrapolation:
    Improved wavefunction reuse through dual PAW basis 

Eigensolver
   Davidson(niter=2, smin=None, normalize=True) 

Densities:
  Coarse grid: 54*54*160 grid
  Fine grid: 108*108*320 grid
  Total Charge: 0.000000 

Density mixing:
  Method: separate
  Backend: pulay
  Linear mixing parameter: 0.05
  Mixing with 5 old densities
  Damping of long wave oscillations: 50 

Hamiltonian:
  XC and Coulomb potentials evaluated on a 108*108*320 grid
  Using the PBE Exchange-Correlation functional
 

XC parameters: PBE with 2 nearest neighbor stencil

Memory estimate:
  Process memory now: 343.89 MiB
  Calculator: 1163.93 MiB
    Density: 3.46 MiB
      Arrays: 1.45 MiB
      Localized functions: 1.44 MiB
      Mixer: 0.58 MiB
    Hamiltonian: 0.98 MiB
      Arrays: 0.95 MiB
      XC: 0.00 MiB
      Poisson: 0.00 MiB
      vbar: 0.04 MiB
    Wavefunctions: 1159.48 MiB
      Arrays psit_nG: 941.05 MiB
      Eigensolver: 198.34 MiB
      Projections: 0.21 MiB
      Projectors: 0.70 MiB
      PW-descriptor: 19.18 MiB

Total number of cores used: 64
Domain decomposition: 2 x 4 x 8

Number of atoms: 145
Number of atomic orbitals: 580
Number of bands in calculation: 178
Number of valence electrons: 289
Bands to converge: occupied

... initialized

Initializing position-dependent things.

Density initialized from atomic densities
Creating initial wave functions:
  178 bands from LCAO basis set

                                                  
                                                  
                                                  
                                                  
                                                  
                         Li                       
            Li      Li      Li                    
           Li Li   Li LiN  Li  Li                 
                  N       N       N               
             LiLiLi  Li LLi   LiLLi               
               Li   N   Li   N  Li   N            
            Li N  LiLi  N LiLi  N Li              
           Li Li   LLiLi   LiLiLi    Li           
                  N       N       N               
             LiLiLi  Li LLi   LiLLi               
               Li LiN   LiLi N  LiLi N            
            Li N    Li  N   Li  N                 
           Li Li   LLiLi   LiLiLi    Li           
             Li   N  Li   N   Li  N               
               LiLi     LLi     LLi               
            Li Li LiNi  LiLiLN  LiLi N            
               N        N       N                 
           Li Li   LLiLi   LiLiLi    Li           
             LiLi N  Li LiN   LiLiN               
                 Li N    Li  N   Li  N            
               Li Li    LiLi    LiLi              
                                                  
                    Li       Li      Li           
                                                  
                                                  
                                                  
                                                  

Positions:
   0 Li     2.569983    5.495817   24.275296    ( 0.0000,  0.0000,  0.0000)
   1 Li     1.717695    0.991763    8.714294    ( 0.0000,  0.0000,  0.0000)
   2 Li     5.153197    0.991763    8.714294    ( 0.0000,  0.0000,  0.0000)
   3 Li     8.588596    0.991763    8.714294    ( 0.0000,  0.0000,  0.0000)
   4 Li    -0.000071    3.967140    8.714294    ( 0.0000,  0.0000,  0.0000)
   5 Li     3.435431    3.967140    8.714294    ( 0.0000,  0.0000,  0.0000)
   6 Li     6.870830    3.967140    8.714294    ( 0.0000,  0.0000,  0.0000)
   7 Li    -1.717786    6.942428    8.714294    ( 0.0000,  0.0000,  0.0000)
   8 Li     1.717717    6.942428    8.714294    ( 0.0000,  0.0000,  0.0000)
   9 Li     5.153115    6.942428    8.714294    ( 0.0000,  0.0000,  0.0000)
  10 Li     0.000000    0.000000   10.653504    ( 0.0000,  0.0000,  0.0000)
  11 Li     3.435502    0.000000   10.653504    ( 0.0000,  0.0000,  0.0000)
  12 Li     6.870901    0.000000   10.653504    ( 0.0000,  0.0000,  0.0000)
  13 Li    -0.000010    1.983525   10.653504    ( 0.0000,  0.0000,  0.0000)
  14 Li     3.435389    1.983525   10.653504    ( 0.0000,  0.0000,  0.0000)
  15 Li     6.870891    1.983525   10.653504    ( 0.0000,  0.0000,  0.0000)
  16 Li    -1.717766    2.975377   10.653504    ( 0.0000,  0.0000,  0.0000)
  17 Li     1.717736    2.975377   10.653504    ( 0.0000,  0.0000,  0.0000)
  18 Li     5.153135    2.975377   10.653504    ( 0.0000,  0.0000,  0.0000)
  19 Li    -1.717776    4.958903   10.653504    ( 0.0000,  0.0000,  0.0000)
  20 Li     1.717623    4.958903   10.653504    ( 0.0000,  0.0000,  0.0000)
  21 Li     5.153125    4.958903   10.653504    ( 0.0000,  0.0000,  0.0000)
  22 Li    -3.435480    5.950666   10.653504    ( 0.0000,  0.0000,  0.0000)
  23 Li     0.000022    5.950666   10.653504    ( 0.0000,  0.0000,  0.0000)
  24 Li     3.435421    5.950666   10.653504    ( 0.0000,  0.0000,  0.0000)
  25 Li    -3.435490    7.934191   10.653504    ( 0.0000,  0.0000,  0.0000)
  26 Li    -0.000091    7.934191   10.653504    ( 0.0000,  0.0000,  0.0000)
  27 Li     3.435411    7.934191   10.653504    ( 0.0000,  0.0000,  0.0000)
  28 Li     1.717695    0.991763   12.627088    ( 0.0000,  0.0000,  0.0000)
  29 Li     5.153197    0.991763   12.627088    ( 0.0000,  0.0000,  0.0000)
  30 Li     8.588596    0.991763   12.627088    ( 0.0000,  0.0000,  0.0000)
  31 Li    -0.000071    3.967140   12.627088    ( 0.0000,  0.0000,  0.0000)
  32 Li     3.435431    3.967140   12.627088    ( 0.0000,  0.0000,  0.0000)
  33 Li     6.870830    3.967140   12.627088    ( 0.0000,  0.0000,  0.0000)
  34 Li    -1.717786    6.942428   12.627088    ( 0.0000,  0.0000,  0.0000)
  35 Li     1.717717    6.942428   12.627088    ( 0.0000,  0.0000,  0.0000)
  36 Li     5.153115    6.942428   12.627088    ( 0.0000,  0.0000,  0.0000)
  37 Li     0.000000    0.000000   14.576373    ( 0.0000,  0.0000,  0.0000)
  38 Li     3.435502    0.000000   14.576373    ( 0.0000,  0.0000,  0.0000)
  39 Li     6.870901    0.000000   14.576373    ( 0.0000,  0.0000,  0.0000)
  40 Li    -0.000010    1.983525   14.576373    ( 0.0000,  0.0000,  0.0000)
  41 Li     3.435389    1.983525   14.576373    ( 0.0000,  0.0000,  0.0000)
  42 Li     6.870891    1.983525   14.576373    ( 0.0000,  0.0000,  0.0000)
  43 Li    -1.717766    2.975377   14.576373    ( 0.0000,  0.0000,  0.0000)
  44 Li     1.717736    2.975377   14.576373    ( 0.0000,  0.0000,  0.0000)
  45 Li     5.153135    2.975377   14.576373    ( 0.0000,  0.0000,  0.0000)
  46 Li    -1.717776    4.958903   14.576373    ( 0.0000,  0.0000,  0.0000)
  47 Li     1.717623    4.958903   14.576373    ( 0.0000,  0.0000,  0.0000)
  48 Li     5.153125    4.958903   14.576373    ( 0.0000,  0.0000,  0.0000)
  49 Li    -3.435480    5.950666   14.576373    ( 0.0000,  0.0000,  0.0000)
  50 Li     0.000022    5.950666   14.576373    ( 0.0000,  0.0000,  0.0000)
  51 Li     3.435421    5.950666   14.576373    ( 0.0000,  0.0000,  0.0000)
  52 Li    -3.435490    7.934191   14.576373    ( 0.0000,  0.0000,  0.0000)
  53 Li    -0.000091    7.934191   14.576373    ( 0.0000,  0.0000,  0.0000)
  54 Li     3.435411    7.934191   14.576373    ( 0.0000,  0.0000,  0.0000)
  55 Li     1.717695    0.991763   16.541957    ( 0.0000,  0.0000,  0.0000)
  56 Li     5.153197    0.991763   16.541957    ( 0.0000,  0.0000,  0.0000)
  57 Li     8.588596    0.991763   16.541957    ( 0.0000,  0.0000,  0.0000)
  58 Li    -0.000071    3.967140   16.541957    ( 0.0000,  0.0000,  0.0000)
  59 Li     3.435431    3.967140   16.541957    ( 0.0000,  0.0000,  0.0000)
  60 Li     6.870830    3.967140   16.541957    ( 0.0000,  0.0000,  0.0000)
  61 Li    -1.717786    6.942428   16.541957    ( 0.0000,  0.0000,  0.0000)
  62 Li     1.717717    6.942428   16.541957    ( 0.0000,  0.0000,  0.0000)
  63 Li     5.153115    6.942428   16.541957    ( 0.0000,  0.0000,  0.0000)
  64 Li     0.000000    0.000000   18.498057    ( 0.0000,  0.0000,  0.0000)
  65 Li     3.435399    0.000000   18.498057    ( 0.0000,  0.0000,  0.0000)
  66 Li     6.870901    0.000000   18.498057    ( 0.0000,  0.0000,  0.0000)
  67 Li    -0.000010    1.983525   18.498057    ( 0.0000,  0.0000,  0.0000)
  68 Li     3.435389    1.983525   18.498057    ( 0.0000,  0.0000,  0.0000)
  69 Li     6.870891    1.983525   18.498057    ( 0.0000,  0.0000,  0.0000)
  70 Li    -1.717766    2.975377   18.498057    ( 0.0000,  0.0000,  0.0000)
  71 Li     1.717633    2.975377   18.498057    ( 0.0000,  0.0000,  0.0000)
  72 Li     5.153135    2.975377   18.498057    ( 0.0000,  0.0000,  0.0000)
  73 Li    -1.717776    4.958903   18.498057    ( 0.0000,  0.0000,  0.0000)
  74 Li     1.717623    4.958903   18.498057    ( 0.0000,  0.0000,  0.0000)
  75 Li     5.153125    4.958903   18.498057    ( 0.0000,  0.0000,  0.0000)
  76 Li    -3.435480    5.950666   18.498057    ( 0.0000,  0.0000,  0.0000)
  77 Li    -0.000081    5.950666   18.498057    ( 0.0000,  0.0000,  0.0000)
  78 Li     3.435421    5.950666   18.498057    ( 0.0000,  0.0000,  0.0000)
  79 Li    -3.435490    7.934191   18.498057    ( 0.0000,  0.0000,  0.0000)
  80 Li    -0.000091    7.934191   18.498057    ( 0.0000,  0.0000,  0.0000)
  81 Li     3.435411    7.934191   18.498057    ( 0.0000,  0.0000,  0.0000)
  82 Li     1.717695    0.991763   20.457418    ( 0.0000,  0.0000,  0.0000)
  83 Li     5.153197    0.991763   20.457418    ( 0.0000,  0.0000,  0.0000)
  84 Li     8.588596    0.991763   20.457418    ( 0.0000,  0.0000,  0.0000)
  85 Li    -0.000071    3.967140   20.457418    ( 0.0000,  0.0000,  0.0000)
  86 Li     3.435431    3.967140   20.457418    ( 0.0000,  0.0000,  0.0000)
  87 Li     6.870830    3.967140   20.457418    ( 0.0000,  0.0000,  0.0000)
  88 Li    -1.717786    6.942428   20.457418    ( 0.0000,  0.0000,  0.0000)
  89 Li     1.717717    6.942428   20.457418    ( 0.0000,  0.0000,  0.0000)
  90 Li     5.153115    6.942428   20.457418    ( 0.0000,  0.0000,  0.0000)
  91 Li     0.000000    0.000000   22.595468    ( 0.0000,  0.0000,  0.0000)
  92 Li     3.435502    0.000000   22.595468    ( 0.0000,  0.0000,  0.0000)
  93 Li     6.870901    0.000000   22.595468    ( 0.0000,  0.0000,  0.0000)
  94 Li    -0.000010    1.983525   22.595468    ( 0.0000,  0.0000,  0.0000)
  95 Li     3.435389    1.983525   22.595468    ( 0.0000,  0.0000,  0.0000)
  96 Li     6.870891    1.983525   22.595468    ( 0.0000,  0.0000,  0.0000)
  97 Li    -1.717766    2.975377   22.595468    ( 0.0000,  0.0000,  0.0000)
  98 Li     1.717736    2.975377   22.595468    ( 0.0000,  0.0000,  0.0000)
  99 Li     5.153135    2.975377   22.595468    ( 0.0000,  0.0000,  0.0000)
 100 Li    -1.717776    4.958903   22.595468    ( 0.0000,  0.0000,  0.0000)
 101 Li     1.717623    4.958903   22.595468    ( 0.0000,  0.0000,  0.0000)
 102 Li     5.153125    4.958903   22.595468    ( 0.0000,  0.0000,  0.0000)
 103 Li    -3.435480    5.950666   22.595468    ( 0.0000,  0.0000,  0.0000)
 104 Li     0.000022    5.950666   22.595468    ( 0.0000,  0.0000,  0.0000)
 105 Li     3.435421    5.950666   22.595468    ( 0.0000,  0.0000,  0.0000)
 106 Li    -3.435490    7.934191   22.595468    ( 0.0000,  0.0000,  0.0000)
 107 Li    -0.000091    7.934191   22.595468    ( 0.0000,  0.0000,  0.0000)
 108 Li     3.435411    7.934191   22.595468    ( 0.0000,  0.0000,  0.0000)
 109 N      1.717695    0.991763   10.638094    ( 0.0000,  0.0000,  0.0000)
 110 N      5.153197    0.991763   10.638094    ( 0.0000,  0.0000,  0.0000)
 111 N      8.588596    0.991763   10.638094    ( 0.0000,  0.0000,  0.0000)
 112 N     -0.000071    3.967140   10.638094    ( 0.0000,  0.0000,  0.0000)
 113 N      3.435431    3.967140   10.638094    ( 0.0000,  0.0000,  0.0000)
 114 N      6.870830    3.967140   10.638094    ( 0.0000,  0.0000,  0.0000)
 115 N     -1.717786    6.942428   10.638094    ( 0.0000,  0.0000,  0.0000)
 116 N      1.717717    6.942428   10.638094    ( 0.0000,  0.0000,  0.0000)
 117 N      5.153115    6.942428   10.638094    ( 0.0000,  0.0000,  0.0000)
 118 N      1.717695    0.991763   14.562149    ( 0.0000,  0.0000,  0.0000)
 119 N      5.153197    0.991763   14.562149    ( 0.0000,  0.0000,  0.0000)
 120 N      8.588596    0.991763   14.562149    ( 0.0000,  0.0000,  0.0000)
 121 N     -0.000071    3.967140   14.562149    ( 0.0000,  0.0000,  0.0000)
 122 N      3.435431    3.967140   14.562149    ( 0.0000,  0.0000,  0.0000)
 123 N      6.870830    3.967140   14.562149    ( 0.0000,  0.0000,  0.0000)
 124 N     -1.717786    6.942428   14.562149    ( 0.0000,  0.0000,  0.0000)
 125 N      1.717717    6.942428   14.562149    ( 0.0000,  0.0000,  0.0000)
 126 N      5.153115    6.942428   14.562149    ( 0.0000,  0.0000,  0.0000)
 127 N      1.717695    0.991763   18.477610    ( 0.0000,  0.0000,  0.0000)
 128 N      5.153197    0.991763   18.477610    ( 0.0000,  0.0000,  0.0000)
 129 N      8.588596    0.991763   18.477610    ( 0.0000,  0.0000,  0.0000)
 130 N     -0.000071    3.967140   18.477610    ( 0.0000,  0.0000,  0.0000)
 131 N      3.435431    3.967140   18.477610    ( 0.0000,  0.0000,  0.0000)
 132 N      6.870830    3.967140   18.477610    ( 0.0000,  0.0000,  0.0000)
 133 N     -1.717786    6.942428   18.477610    ( 0.0000,  0.0000,  0.0000)
 134 N      1.717717    6.942428   18.477610    ( 0.0000,  0.0000,  0.0000)
 135 N      5.153115    6.942428   18.477610    ( 0.0000,  0.0000,  0.0000)
 136 N      1.717695    0.991763   22.371735    ( 0.0000,  0.0000,  0.0000)
 137 N      5.153197    0.991763   22.371735    ( 0.0000,  0.0000,  0.0000)
 138 N      8.588596    0.991763   22.371735    ( 0.0000,  0.0000,  0.0000)
 139 N     -0.000071    3.967140   22.371735    ( 0.0000,  0.0000,  0.0000)
 140 N      3.435431    3.967140   22.371735    ( 0.0000,  0.0000,  0.0000)
 141 N      6.870830    3.967140   22.371735    ( 0.0000,  0.0000,  0.0000)
 142 N     -1.717786    6.942428   22.371735    ( 0.0000,  0.0000,  0.0000)
 143 N      1.717717    6.942428   22.371735    ( 0.0000,  0.0000,  0.0000)
 144 N      5.153115    6.942428   22.371735    ( 0.0000,  0.0000,  0.0000)

Unit cell:
           periodic     x           y           z      points  spacing
  1. axis:    yes   10.306300    0.000000    0.000000    54     0.1653
  2. axis:    yes   -5.153194    8.925954    0.000000    54     0.1653
  3. axis:    yes    0.000000    0.000000   29.633400   160     0.1852

  Lengths:  10.306300  10.306700  29.633400
  Angles:   90.000000  90.000000 119.999001

Effective grid spacing dv^(1/3) = 0.1801

                     log10-error:    total        iterations:
           time      wfs    density  energy       fermi  poisson
iter:   1  21:31:24                -615.865319    3             
iter:   2  21:31:50  -0.98  -0.50  -585.036238    5             
iter:   3  21:32:16  -1.12  -0.59  -562.507126    33            
iter:   4  21:32:42  -0.66  -0.64  -528.473685    4             
iter:   5  21:33:08  -1.85  -0.85  -525.826504    36            
iter:   6  21:33:33  -1.53  -0.91  -526.617105    36            
iter:   7  21:33:59  -1.67  -0.96  -526.101943    30            
iter:   8  21:34:25  -2.11  -0.95  -521.149164    5             
iter:   9  21:34:50  -1.52  -1.09  -526.217150    38            
iter:  10  21:35:16  -1.66  -1.06  -582.596571    36            
iter:  11  21:35:42  -2.56  -0.64  -539.172850    6             
iter:  12  21:36:08  -2.55  -0.94  -529.112205    36            
iter:  13  21:36:34  -1.56  -1.04  -518.961961    36            
iter:  14  21:37:00  -2.46  -1.30  -518.878477    4             
iter:  15  21:37:25  -2.47  -1.34  -518.766435    5             
iter:  16  21:37:51  -2.89  -1.61  -518.926741    4             
iter:  17  21:38:17  -3.28  -1.78  -518.847737    5             
iter:  18  21:38:43  -3.48  -1.86  -518.806838    2             
iter:  19  21:39:09  -3.29  -1.95  -518.743423    5             
iter:  20  21:39:35  -3.68  -2.16  -518.732995    5             
iter:  21  21:40:00  -4.09  -2.26  -518.702503    6             
iter:  22  21:40:26  -4.55  -2.39  -518.695234    5             
iter:  23  21:40:52  -5.51  -2.39  -518.693444    4             
iter:  24  21:41:18  -4.48  -2.47  -518.774043    3             
iter:  25  21:41:44  -5.36  -2.07  -518.740969    3             
iter:  26  21:42:10  -4.49  -2.14  -518.695277    4             
iter:  27  21:42:35  -5.10  -2.71  -518.697961    4             
iter:  28  21:43:01  -5.11  -2.70  -518.703087    4             
iter:  29  21:43:27  -5.40  -2.74  -518.699645    4             
iter:  30  21:43:53  -5.71  -2.87  -518.696257    4             
iter:  31  21:44:19  -5.48  -2.91  -518.691610    4             
iter:  32  21:44:44  -6.21  -2.98  -518.693543    4             
iter:  33  21:45:10  -5.77  -3.04  -518.691981    4             
iter:  34  21:45:36  -6.14  -3.12  -518.692204    3             
iter:  35  21:46:02  -6.78  -3.42  -518.692686    3             
iter:  36  21:46:28  -6.52  -3.54  -518.693066    3             
iter:  37  21:46:53  -7.50  -3.50  -518.692676    3             
iter:  38  21:47:19  -7.79  -3.67  -518.692543    3             
iter:  39  21:47:45  -7.05  -3.77  -518.692791    3             
iter:  40  21:48:11  -7.58  -3.86  -518.692434    3             
iter:  41  21:48:37  -8.66  -4.20  -518.692510    3             

Converged after 41 iterations.

Dipole moment: (-4.325323, 2.774933, -0.110282) |e|*Ang

Energy contributions relative to reference atoms: (reference = -75445.846558)

Kinetic:       +676.576575
Potential:     -493.353061
External:        +0.000000
XC:            -698.957458
Entropy (-ST):   -0.049173
Local:           -2.933980
--------------------------
Free energy:   -518.717096
Extrapolated:  -518.692510

Fermi level: -0.55288

Showing only first 2 kpts
 Kpt  Band  Eigenvalues  Occupancy
  0   142     -0.48472    0.00712
  0   143     -0.28600    0.00000
  0   144     -0.27937    0.00000
  0   145      0.03071    0.00000

  1   142     -0.60108    0.40781
  1   143     -0.59940    0.40489
  1   144     -0.55157    0.21493
  1   145     -0.43826    0.00144


No gap

Forces in eV/Ang:
  0 Li   -0.04710    0.05410    1.30965
  1 Li    0.00002    0.00004   -0.01100
  2 Li   -0.00002    0.00005   -0.01101
  3 Li    0.00000    0.00001   -0.01101
  4 Li    0.00006   -0.00002   -0.01100
  5 Li   -0.00005    0.00003   -0.01102
  6 Li   -0.00002   -0.00002   -0.01101
  7 Li    0.00004   -0.00003   -0.01101
  8 Li    0.00000   -0.00002   -0.01104
  9 Li   -0.00004   -0.00002   -0.01103
 10 Li    0.00007    0.00010   -0.00807
 11 Li   -0.00071    0.00018   -0.00805
 12 Li   -0.00017   -0.00003   -0.00813
 13 Li   -0.00008    0.00043   -0.00807
 14 Li    0.00040    0.00010   -0.00813
 15 Li   -0.00034    0.00028   -0.00806
 16 Li    0.00033   -0.00029   -0.00807
 17 Li   -0.00046   -0.00021   -0.00813
 18 Li    0.00016   -0.00047   -0.00813
 19 Li    0.00017    0.00012   -0.00807
 20 Li    0.00065   -0.00021   -0.00820
 21 Li   -0.00001   -0.00006   -0.00813
 22 Li    0.00010    0.00005   -0.00807
 23 Li   -0.00075    0.00017   -0.00814
 24 Li   -0.00014   -0.00008   -0.00820
 25 Li    0.00021    0.00012   -0.00807
 26 Li    0.00062   -0.00017   -0.00813
 27 Li   -0.00003   -0.00003   -0.00814
 28 Li   -0.00001   -0.00009   -0.00601
 29 Li   -0.00002    0.00008   -0.00610
 30 Li    0.00005    0.00015   -0.00602
 31 Li   -0.00016   -0.00018   -0.00614
 32 Li    0.00003   -0.00011   -0.00637
 33 Li    0.00010   -0.00006   -0.00601
 34 Li   -0.00009   -0.00002   -0.00602
 35 Li   -0.00008    0.00013   -0.00638
 36 Li    0.00017    0.00010   -0.00614
 37 Li    0.00001    0.00039    0.01238
 38 Li   -0.00084    0.00012    0.01251
 39 Li    0.00001    0.00078    0.01188
 40 Li   -0.00002    0.00015    0.01238
 41 Li    0.00021   -0.00069    0.01188
 42 Li   -0.00022    0.00036    0.01251
 43 Li    0.00007   -0.00043    0.01225
 44 Li   -0.00097   -0.00075    0.01192
 45 Li    0.00094   -0.00069    0.01189
 46 Li   -0.00004    0.00030    0.01239
 47 Li    0.00014   -0.00054    0.01125
 48 Li    0.00071    0.00009    0.01191
 49 Li    0.00031   -0.00015    0.01237
 50 Li   -0.00150   -0.00003    0.01190
 51 Li    0.00039    0.00020    0.01124
 52 Li    0.00047    0.00028    0.01224
 53 Li   -0.00017    0.00008    0.01187
 54 Li    0.00049    0.00053    0.01189
 55 Li   -0.00040   -0.00073   -0.00996
 56 Li   -0.00004    0.00009   -0.01058
 57 Li    0.00044    0.00086   -0.00993
 58 Li   -0.00177   -0.00111   -0.01030
 59 Li    0.00085   -0.00163   -0.01187
 60 Li    0.00087   -0.00008   -0.00992
 61 Li   -0.00089   -0.00000   -0.00997
 62 Li   -0.00096    0.00157   -0.01194
 63 Li    0.00180    0.00102   -0.01030
 64 Li   -0.00070    0.00302   -0.01553
 65 Li   -0.00057   -0.00027   -0.01245
 66 Li    0.00148    0.00982   -0.02524
 67 Li    0.00049   -0.00258   -0.01540
 68 Li   -0.00150   -0.00930   -0.02490
 69 Li    0.00049    0.00082   -0.01245
 70 Li   -0.00256   -0.00186   -0.01695
 71 Li   -0.00540   -0.00495   -0.02230
 72 Li    0.00932   -0.00376   -0.02485
 73 Li   -0.00216    0.00195   -0.01538
 74 Li   -0.00473   -0.00335   -0.02491
 75 Li    0.00706    0.00258   -0.02231
 76 Li    0.00221   -0.00219   -0.01556
 77 Li   -0.00707   -0.00281   -0.02268
 78 Li    0.00523    0.00270   -0.02490
 79 Li    0.00285    0.00171   -0.01713
 80 Li   -0.00892    0.00354   -0.02529
 81 Li    0.00609    0.00489   -0.02269
 82 Li   -0.01021   -0.00883    0.04449
 83 Li   -0.00028    0.00079    0.04304
 84 Li    0.01050    0.00987    0.04493
 85 Li   -0.01010   -0.00646    0.06604
 86 Li   -0.00098    0.00176    0.09689
 87 Li    0.01296    0.00412    0.04460
 88 Li   -0.01357   -0.00445    0.04483
 89 Li    0.00095   -0.00155    0.09873
 90 Li    0.01022    0.00532    0.06667
 91 Li    0.01934    0.00399   -0.05031
 92 Li   -0.01495   -0.00733   -0.03887
 93 Li   -0.01078    0.03880   -0.04092
 94 Li   -0.02012   -0.00232   -0.05046
 95 Li    0.01081   -0.03657   -0.03629
 96 Li    0.01362    0.00903   -0.03934
 97 Li   -0.00627   -0.00459   -0.00909
 98 Li   -0.04818   -0.09047   -0.15871
 99 Li    0.02658   -0.02794   -0.03703
100 Li   -0.01246   -0.01531   -0.05053
101 Li   -0.82969   -0.52180   -2.01450
102 Li    0.10605   -0.00557   -0.16436
103 Li    0.01284    0.01543   -0.05016
104 Li   -0.11472    0.00374   -0.17260
105 Li    0.87235    0.45993   -2.07863
106 Li    0.00782    0.00392   -0.00880
107 Li   -0.02780    0.02820   -0.04014
108 Li    0.05463    0.10524   -0.17897
109 N     0.00037    0.00034   -0.04555
110 N    -0.00043    0.00035   -0.04548
111 N    -0.00007    0.00028   -0.04555
112 N     0.00049   -0.00032   -0.04562
113 N    -0.00035   -0.00027   -0.04561
114 N    -0.00001   -0.00033   -0.04554
115 N     0.00043   -0.00003   -0.04555
116 N    -0.00037   -0.00000   -0.04558
117 N    -0.00007   -0.00004   -0.04562
118 N     0.00063    0.00085    0.00241
119 N    -0.00043    0.00034    0.00330
120 N    -0.00034   -0.00026    0.00242
121 N     0.00150    0.00026    0.00394
122 N    -0.00076    0.00044    0.00717
123 N    -0.00059   -0.00030    0.00240
124 N     0.00102   -0.00006    0.00243
125 N     0.00004   -0.00070    0.00725
126 N    -0.00108   -0.00062    0.00402
127 N     0.00383    0.00626    0.00373
128 N    -0.00050   -0.00006    0.01130
129 N    -0.00394   -0.00603    0.00412
130 N     0.00846    0.00468    0.01441
131 N    -0.00087    0.00020    0.04969
132 N    -0.00705   -0.00052    0.00366
133 N     0.00745    0.00039    0.00416
134 N    -0.00041   -0.00035    0.05114
135 N    -0.00832   -0.00462    0.01504
136 N     0.01077    0.00164    0.15744
137 N    -0.00016   -0.00002    0.13515
138 N    -0.01125   -0.00274    0.16003
139 N     0.21524    0.12856    0.42317
140 N    -0.42316    0.74594    1.35999
141 N    -0.00638   -0.00886    0.15816
142 N     0.00853    0.00810    0.15913
143 N     0.44465   -0.75612    1.43132
144 N    -0.22973   -0.12771    0.43615

System changes: positions 

Initializing position-dependent things.

Density initialized from wave functions
                                                  
                                                  
                                                  
                                                  
                                                  
                         Li                       
            Li      Li      Li                    
           Li Li   Li LiN  Li  Li                 
                  N       N       N               
             LiLiLi  Li LLi   LiLLi               
               Li   N   Li   N  Li   N            
            Li N  LiLi  N LiLi  N Li              
           Li Li   LLiLi   LiLiLi    Li           
                  N       N       N               
             LiLiLi  Li LLi   LiLLi               
               Li LiN   LiLi N  LiLi N            
            Li N    Li  N   Li  N                 
           Li Li   LLiLi   LiLiLi    Li           
             Li   N  Li   N   Li  N               
               LiLi     LLi     LLi               
            Li Li LiNi  LiLiLN  LiLi N            
               N        N       N                 
           Li Li   LLiLi   LiLiLi    Li           
             LiLi N  Li LiN   LiLiN               
                 Li N    Li  N   Li  N            
               Li Li    LiLi    LiLi              
                                                  
                    Li       Li      Li           
                                                  
                                                  
                                                  
                                                  

Positions:
   0 Li     2.569310    5.496590   24.294005    ( 0.0000,  0.0000,  0.0000)
   1 Li     1.717695    0.991763    8.714294    ( 0.0000,  0.0000,  0.0000)
   2 Li     5.153197    0.991763    8.714294    ( 0.0000,  0.0000,  0.0000)
   3 Li     8.588596    0.991763    8.714294    ( 0.0000,  0.0000,  0.0000)
   4 Li    -0.000071    3.967140    8.714294    ( 0.0000,  0.0000,  0.0000)
   5 Li     3.435431    3.967140    8.714294    ( 0.0000,  0.0000,  0.0000)
   6 Li     6.870830    3.967140    8.714294    ( 0.0000,  0.0000,  0.0000)
   7 Li    -1.717786    6.942428    8.714294    ( 0.0000,  0.0000,  0.0000)
   8 Li     1.717717    6.942428    8.714294    ( 0.0000,  0.0000,  0.0000)
   9 Li     5.153115    6.942428    8.714294    ( 0.0000,  0.0000,  0.0000)
  10 Li     0.000000    0.000000   10.653504    ( 0.0000,  0.0000,  0.0000)
  11 Li     3.435502    0.000000   10.653504    ( 0.0000,  0.0000,  0.0000)
  12 Li     6.870901    0.000000   10.653504    ( 0.0000,  0.0000,  0.0000)
  13 Li    -0.000010    1.983525   10.653504    ( 0.0000,  0.0000,  0.0000)
  14 Li     3.435389    1.983525   10.653504    ( 0.0000,  0.0000,  0.0000)
  15 Li     6.870891    1.983525   10.653504    ( 0.0000,  0.0000,  0.0000)
  16 Li    -1.717766    2.975377   10.653504    ( 0.0000,  0.0000,  0.0000)
  17 Li     1.717736    2.975377   10.653504    ( 0.0000,  0.0000,  0.0000)
  18 Li     5.153135    2.975377   10.653504    ( 0.0000,  0.0000,  0.0000)
  19 Li    -1.717776    4.958903   10.653504    ( 0.0000,  0.0000,  0.0000)
  20 Li     1.717623    4.958903   10.653504    ( 0.0000,  0.0000,  0.0000)
  21 Li     5.153125    4.958903   10.653504    ( 0.0000,  0.0000,  0.0000)
  22 Li    -3.435480    5.950666   10.653504    ( 0.0000,  0.0000,  0.0000)
  23 Li     0.000022    5.950666   10.653504    ( 0.0000,  0.0000,  0.0000)
  24 Li     3.435421    5.950666   10.653504    ( 0.0000,  0.0000,  0.0000)
  25 Li    -3.435490    7.934191   10.653504    ( 0.0000,  0.0000,  0.0000)
  26 Li    -0.000091    7.934191   10.653504    ( 0.0000,  0.0000,  0.0000)
  27 Li     3.435411    7.934191   10.653504    ( 0.0000,  0.0000,  0.0000)
  28 Li     1.717695    0.991763   12.627088    ( 0.0000,  0.0000,  0.0000)
  29 Li     5.153197    0.991763   12.627088    ( 0.0000,  0.0000,  0.0000)
  30 Li     8.588596    0.991763   12.627088    ( 0.0000,  0.0000,  0.0000)
  31 Li    -0.000071    3.967140   12.627088    ( 0.0000,  0.0000,  0.0000)
  32 Li     3.435431    3.967140   12.627088    ( 0.0000,  0.0000,  0.0000)
  33 Li     6.870830    3.967140   12.627088    ( 0.0000,  0.0000,  0.0000)
  34 Li    -1.717786    6.942428   12.627088    ( 0.0000,  0.0000,  0.0000)
  35 Li     1.717717    6.942428   12.627088    ( 0.0000,  0.0000,  0.0000)
  36 Li     5.153115    6.942428   12.627088    ( 0.0000,  0.0000,  0.0000)
  37 Li     0.000000    0.000000   14.576373    ( 0.0000,  0.0000,  0.0000)
  38 Li     3.435502    0.000000   14.576373    ( 0.0000,  0.0000,  0.0000)
  39 Li     6.870901    0.000000   14.576373    ( 0.0000,  0.0000,  0.0000)
  40 Li    -0.000010    1.983525   14.576373    ( 0.0000,  0.0000,  0.0000)
  41 Li     3.435389    1.983525   14.576373    ( 0.0000,  0.0000,  0.0000)
  42 Li     6.870891    1.983525   14.576373    ( 0.0000,  0.0000,  0.0000)
  43 Li    -1.717766    2.975377   14.576373    ( 0.0000,  0.0000,  0.0000)
  44 Li     1.717736    2.975377   14.576373    ( 0.0000,  0.0000,  0.0000)
  45 Li     5.153135    2.975377   14.576373    ( 0.0000,  0.0000,  0.0000)
  46 Li    -1.717776    4.958903   14.576373    ( 0.0000,  0.0000,  0.0000)
  47 Li     1.717623    4.958903   14.576373    ( 0.0000,  0.0000,  0.0000)
  48 Li     5.153125    4.958903   14.576373    ( 0.0000,  0.0000,  0.0000)
  49 Li    -3.435480    5.950666   14.576373    ( 0.0000,  0.0000,  0.0000)
  50 Li     0.000022    5.950666   14.576373    ( 0.0000,  0.0000,  0.0000)
  51 Li     3.435421    5.950666   14.576373    ( 0.0000,  0.0000,  0.0000)
  52 Li    -3.435490    7.934191   14.576373    ( 0.0000,  0.0000,  0.0000)
  53 Li    -0.000091    7.934191   14.576373    ( 0.0000,  0.0000,  0.0000)
  54 Li     3.435411    7.934191   14.576373    ( 0.0000,  0.0000,  0.0000)
  55 Li     1.717689    0.991752   16.541814    ( 0.0000,  0.0000,  0.0000)
  56 Li     5.153196    0.991764   16.541805    ( 0.0000,  0.0000,  0.0000)
  57 Li     8.588602    0.991775   16.541815    ( 0.0000,  0.0000,  0.0000)
  58 Li    -0.000097    3.967124   16.541809    ( 0.0000,  0.0000,  0.0000)
  59 Li     3.435443    3.967117   16.541787    ( 0.0000,  0.0000,  0.0000)
  60 Li     6.870842    3.967139   16.541815    ( 0.0000,  0.0000,  0.0000)
  61 Li    -1.717798    6.942428   16.541814    ( 0.0000,  0.0000,  0.0000)
  62 Li     1.717703    6.942451   16.541786    ( 0.0000,  0.0000,  0.0000)
  63 Li     5.153141    6.942443   16.541809    ( 0.0000,  0.0000,  0.0000)
  64 Li    -0.000010    0.000043   18.497835    ( 0.0000,  0.0000,  0.0000)
  65 Li     3.435391   -0.000004   18.497879    ( 0.0000,  0.0000,  0.0000)
  66 Li     6.870922    0.000140   18.497697    ( 0.0000,  0.0000,  0.0000)
  67 Li    -0.000003    1.983489   18.497837    ( 0.0000,  0.0000,  0.0000)
  68 Li     3.435368    1.983393   18.497702    ( 0.0000,  0.0000,  0.0000)
  69 Li     6.870898    1.983537   18.497879    ( 0.0000,  0.0000,  0.0000)
  70 Li    -1.717802    2.975351   18.497815    ( 0.0000,  0.0000,  0.0000)
  71 Li     1.717556    2.975307   18.497739    ( 0.0000,  0.0000,  0.0000)
  72 Li     5.153268    2.975324   18.497702    ( 0.0000,  0.0000,  0.0000)
  73 Li    -1.717807    4.958931   18.497838    ( 0.0000,  0.0000,  0.0000)
  74 Li     1.717556    4.958855   18.497701    ( 0.0000,  0.0000,  0.0000)
  75 Li     5.153226    4.958940   18.497739    ( 0.0000,  0.0000,  0.0000)
  76 Li    -3.435449    5.950634   18.497835    ( 0.0000,  0.0000,  0.0000)
  77 Li    -0.000182    5.950625   18.497733    ( 0.0000,  0.0000,  0.0000)
  78 Li     3.435496    5.950704   18.497702    ( 0.0000,  0.0000,  0.0000)
  79 Li    -3.435449    7.934216   18.497813    ( 0.0000,  0.0000,  0.0000)
  80 Li    -0.000218    7.934242   18.497696    ( 0.0000,  0.0000,  0.0000)
  81 Li     3.435498    7.934261   18.497733    ( 0.0000,  0.0000,  0.0000)
  82 Li     1.717549    0.991637   20.458053    ( 0.0000,  0.0000,  0.0000)
  83 Li     5.153193    0.991774   20.458033    ( 0.0000,  0.0000,  0.0000)
  84 Li     8.588746    0.991904   20.458060    ( 0.0000,  0.0000,  0.0000)
  85 Li    -0.000216    3.967048   20.458361    ( 0.0000,  0.0000,  0.0000)
  86 Li     3.435417    3.967165   20.458802    ( 0.0000,  0.0000,  0.0000)
  87 Li     6.871015    3.967199   20.458055    ( 0.0000,  0.0000,  0.0000)
  88 Li    -1.717979    6.942365   20.458058    ( 0.0000,  0.0000,  0.0000)
  89 Li     1.717730    6.942406   20.458828    ( 0.0000,  0.0000,  0.0000)
  90 Li     5.153262    6.942504   20.458370    ( 0.0000,  0.0000,  0.0000)
  91 Li     0.000276    0.000057   22.594749    ( 0.0000,  0.0000,  0.0000)
  92 Li     3.435288   -0.000105   22.594912    ( 0.0000,  0.0000,  0.0000)
  93 Li     6.870747    0.000554   22.594883    ( 0.0000,  0.0000,  0.0000)
  94 Li    -0.000297    1.983492   22.594747    ( 0.0000,  0.0000,  0.0000)
  95 Li     3.435544    1.983003   22.594949    ( 0.0000,  0.0000,  0.0000)
  96 Li     6.871086    1.983654   22.594906    ( 0.0000,  0.0000,  0.0000)
  97 Li    -1.717855    2.975312   22.595338    ( 0.0000,  0.0000,  0.0000)
  98 Li     1.717048    2.974085   22.593200    ( 0.0000,  0.0000,  0.0000)
  99 Li     5.153515    2.974978   22.594939    ( 0.0000,  0.0000,  0.0000)
 100 Li    -1.717954    4.958684   22.594746    ( 0.0000,  0.0000,  0.0000)
 101 Li     1.705771    4.951449   22.566689    ( 0.0000,  0.0000,  0.0000)
 102 Li     5.154640    4.958823   22.593119    ( 0.0000,  0.0000,  0.0000)
 103 Li    -3.435297    5.950886   22.594751    ( 0.0000,  0.0000,  0.0000)
 104 Li    -0.001617    5.950719   22.593002    ( 0.0000,  0.0000,  0.0000)
 105 Li     3.447883    5.957236   22.565773    ( 0.0000,  0.0000,  0.0000)
 106 Li    -3.435378    7.934247   22.595342    ( 0.0000,  0.0000,  0.0000)
 107 Li    -0.000488    7.934594   22.594894    ( 0.0000,  0.0000,  0.0000)
 108 Li     3.436192    7.935695   22.592911    ( 0.0000,  0.0000,  0.0000)
 109 N      1.717695    0.991763   10.638094    ( 0.0000,  0.0000,  0.0000)
 110 N      5.153197    0.991763   10.638094    ( 0.0000,  0.0000,  0.0000)
 111 N      8.588596    0.991763   10.638094    ( 0.0000,  0.0000,  0.0000)
 112 N     -0.000071    3.967140   10.638094    ( 0.0000,  0.0000,  0.0000)
 113 N      3.435431    3.967140   10.638094    ( 0.0000,  0.0000,  0.0000)
 114 N      6.870830    3.967140   10.638094    ( 0.0000,  0.0000,  0.0000)
 115 N     -1.717786    6.942428   10.638094    ( 0.0000,  0.0000,  0.0000)
 116 N      1.717717    6.942428   10.638094    ( 0.0000,  0.0000,  0.0000)
 117 N      5.153115    6.942428   10.638094    ( 0.0000,  0.0000,  0.0000)
 118 N      1.717695    0.991763   14.562149    ( 0.0000,  0.0000,  0.0000)
 119 N      5.153197    0.991763   14.562149    ( 0.0000,  0.0000,  0.0000)
 120 N      8.588596    0.991763   14.562149    ( 0.0000,  0.0000,  0.0000)
 121 N     -0.000071    3.967140   14.562149    ( 0.0000,  0.0000,  0.0000)
 122 N      3.435431    3.967140   14.562149    ( 0.0000,  0.0000,  0.0000)
 123 N      6.870830    3.967140   14.562149    ( 0.0000,  0.0000,  0.0000)
 124 N     -1.717786    6.942428   14.562149    ( 0.0000,  0.0000,  0.0000)
 125 N      1.717717    6.942428   14.562149    ( 0.0000,  0.0000,  0.0000)
 126 N      5.153115    6.942428   14.562149    ( 0.0000,  0.0000,  0.0000)
 127 N      1.717749    0.991852   18.477663    ( 0.0000,  0.0000,  0.0000)
 128 N      5.153189    0.991762   18.477772    ( 0.0000,  0.0000,  0.0000)
 129 N      8.588539    0.991677   18.477669    ( 0.0000,  0.0000,  0.0000)
 130 N      0.000050    3.967207   18.477816    ( 0.0000,  0.0000,  0.0000)
 131 N      3.435418    3.967143   18.478320    ( 0.0000,  0.0000,  0.0000)
 132 N      6.870729    3.967133   18.477662    ( 0.0000,  0.0000,  0.0000)
 133 N     -1.717679    6.942434   18.477670    ( 0.0000,  0.0000,  0.0000)
 134 N      1.717711    6.942423   18.478341    ( 0.0000,  0.0000,  0.0000)
 135 N      5.152997    6.942362   18.477825    ( 0.0000,  0.0000,  0.0000)
 136 N      1.717848    0.991786   22.373984    ( 0.0000,  0.0000,  0.0000)
 137 N      5.153194    0.991762   22.373666    ( 0.0000,  0.0000,  0.0000)
 138 N      8.588435    0.991724   22.374021    ( 0.0000,  0.0000,  0.0000)
 139 N      0.003004    3.968977   22.377781    ( 0.0000,  0.0000,  0.0000)
 140 N      3.429386    3.977797   22.391164    ( 0.0000,  0.0000,  0.0000)
 141 N      6.870739    3.967014   22.373995    ( 0.0000,  0.0000,  0.0000)
 142 N     -1.717664    6.942544   22.374009    ( 0.0000,  0.0000,  0.0000)
 143 N      1.724069    6.931627   22.392183    ( 0.0000,  0.0000,  0.0000)
 144 N      5.149834    6.940604   22.377966    ( 0.0000,  0.0000,  0.0000)

Unit cell:
           periodic     x           y           z      points  spacing
  1. axis:    yes   10.306300    0.000000    0.000000    54     0.1653
  2. axis:    yes   -5.153194    8.925954    0.000000    54     0.1653
  3. axis:    yes    0.000000    0.000000   29.633400   160     0.1852

  Lengths:  10.306300  10.306700  29.633400
  Angles:   90.000000  90.000000 119.999001

Effective grid spacing dv^(1/3) = 0.1801

                     log10-error:    total        iterations:
           time      wfs    density  energy       fermi  poisson
iter:   1  21:49:21  -3.23         -518.948367    4             
iter:   2  21:49:47  -4.37  -2.74  -518.938585    5             
iter:   3  21:50:12  -4.94  -2.72  -518.943515    5             
iter:   4  21:50:37  -5.34  -2.81  -518.938563    4             
iter:   5  21:51:03  -5.38  -2.91  -518.933335    5             
iter:   6  21:51:28  -4.80  -2.94  -518.939651    5             
iter:   7  21:51:54  -4.94  -2.92  -518.936991    5             
iter:   8  21:52:19  -5.42  -2.63  -518.937771    5             
iter:   9  21:52:45  -6.55  -3.03  -518.934460    4             
iter:  10  21:53:10  -6.17  -3.21  -518.931832    4             
iter:  11  21:53:35  -6.51  -3.37  -518.933189    4             
iter:  12  21:54:01  -6.38  -3.44  -518.931899    4             
iter:  13  21:54:26  -7.08  -3.59  -518.932095    3             
iter:  14  21:54:52  -7.55  -3.90  -518.932131    2             
iter:  15  21:55:17  -7.63  -4.03  -518.932188    3             
iter:  16  21:55:43  -7.61  -4.25  -518.932124    3             
iter:  17  21:56:08  -8.37  -4.26  -518.932179    3             

Converged after 17 iterations.

Dipole moment: (-4.351456, 2.778850, -0.108409) |e|*Ang

Energy contributions relative to reference atoms: (reference = -75445.846558)

Kinetic:       +676.090911
Potential:     -493.129940
External:        +0.000000
XC:            -698.922538
Entropy (-ST):   -0.049021
Local:           -2.946102
--------------------------
Free energy:   -518.956690
Extrapolated:  -518.932179

Fermi level: -0.55316

Showing only first 2 kpts
 Kpt  Band  Eigenvalues  Occupancy
  0   142     -0.48112    0.00590
  0   143     -0.28549    0.00000
  0   144     -0.28305    0.00000
  0   145      0.03025    0.00000

  1   142     -0.60151    0.40807
  1   143     -0.59773    0.40124
  1   144     -0.55201    0.21583
  1   145     -0.44075    0.00160


No gap

Forces in eV/Ang:
  0 Li   -0.04275    0.05059    0.98425
  1 Li    0.00002    0.00003   -0.01104
  2 Li   -0.00002    0.00005   -0.01105
  3 Li    0.00000    0.00001   -0.01105
  4 Li    0.00006   -0.00003   -0.01105
  5 Li   -0.00004    0.00002   -0.01108
  6 Li   -0.00002   -0.00002   -0.01105
  7 Li    0.00004   -0.00003   -0.01105
  8 Li   -0.00000   -0.00001   -0.01110
  9 Li   -0.00004   -0.00002   -0.01108
 10 Li    0.00007    0.00011   -0.00836
 11 Li   -0.00071    0.00018   -0.00833
 12 Li   -0.00017   -0.00002   -0.00843
 13 Li   -0.00008    0.00042   -0.00836
 14 Li    0.00039    0.00008   -0.00843
 15 Li   -0.00034    0.00028   -0.00834
 16 Li    0.00032   -0.00029   -0.00837
 17 Li   -0.00047   -0.00022   -0.00844
 18 Li    0.00017   -0.00047   -0.00843
 19 Li    0.00017    0.00012   -0.00836
 20 Li    0.00064   -0.00022   -0.00853
 21 Li    0.00000   -0.00006   -0.00844
 22 Li    0.00010    0.00005   -0.00837
 23 Li   -0.00077    0.00016   -0.00844
 24 Li   -0.00013   -0.00008   -0.00853
 25 Li    0.00021    0.00012   -0.00837
 26 Li    0.00061   -0.00016   -0.00843
 27 Li   -0.00002   -0.00002   -0.00844
 28 Li   -0.00001   -0.00012   -0.00606
 29 Li   -0.00002    0.00008   -0.00617
 30 Li    0.00005    0.00018   -0.00606
 31 Li   -0.00021   -0.00021   -0.00620
 32 Li    0.00005   -0.00016   -0.00649
 33 Li    0.00013   -0.00008   -0.00605
 34 Li   -0.00012   -0.00000   -0.00606
 35 Li   -0.00011    0.00017   -0.00651
 36 Li    0.00022    0.00012   -0.00620
 37 Li    0.00001    0.00046    0.01171
 38 Li   -0.00085    0.00011    0.01192
 39 Li    0.00003    0.00099    0.01114
 40 Li   -0.00001    0.00008    0.01171
 41 Li    0.00019   -0.00089    0.01116
 42 Li   -0.00021    0.00037    0.01192
 43 Li   -0.00001   -0.00047    0.01156
 44 Li   -0.00108   -0.00088    0.01116
 45 Li    0.00112   -0.00078    0.01117
 46 Li   -0.00010    0.00033    0.01172
 47 Li    0.00002   -0.00062    0.01039
 48 Li    0.00088    0.00012    0.01115
 49 Li    0.00037   -0.00019    0.01170
 50 Li   -0.00167   -0.00006    0.01113
 51 Li    0.00051    0.00026    0.01038
 52 Li    0.00055    0.00033    0.01155
 53 Li   -0.00036    0.00018    0.01114
 54 Li    0.00061    0.00066    0.01112
 55 Li   -0.00041   -0.00097   -0.00834
 56 Li   -0.00006    0.00011   -0.00863
 57 Li    0.00046    0.00113   -0.00832
 58 Li   -0.00218   -0.00136   -0.00831
 59 Li    0.00105   -0.00198   -0.00825
 60 Li    0.00110   -0.00020   -0.00832
 61 Li   -0.00113    0.00012   -0.00835
 62 Li   -0.00115    0.00190   -0.00827
 63 Li    0.00223    0.00125   -0.00830
 64 Li   -0.00022    0.00273   -0.01389
 65 Li   -0.00059   -0.00026   -0.01068
 66 Li    0.00100    0.00897   -0.02241
 67 Li    0.00011   -0.00232   -0.01380
 68 Li   -0.00105   -0.00843   -0.02209
 69 Li    0.00050    0.00075   -0.01070
 70 Li   -0.00220   -0.00158   -0.01544
 71 Li   -0.00475   -0.00480   -0.01922
 72 Li    0.00823   -0.00366   -0.02205
 73 Li   -0.00211    0.00140   -0.01376
 74 Li   -0.00434   -0.00311   -0.02119
 75 Li    0.00655    0.00201   -0.01921
 76 Li    0.00218   -0.00164   -0.01393
 77 Li   -0.00663   -0.00230   -0.01958
 78 Li    0.00480    0.00243   -0.02119
 79 Li    0.00246    0.00150   -0.01558
 80 Li   -0.00800    0.00353   -0.02245
 81 Li    0.00536    0.00475   -0.01957
 82 Li   -0.01007   -0.00991    0.04627
 83 Li   -0.00038    0.00090    0.04328
 84 Li    0.01042    0.01113    0.04671
 85 Li   -0.01923   -0.01179    0.07297
 86 Li    0.00323   -0.00580    0.15249
 87 Li    0.01385    0.00346    0.04638
 88 Li   -0.01460   -0.00374    0.04660
 89 Li   -0.00319    0.00535    0.15832
 90 Li    0.01970    0.01072    0.07406
 91 Li    0.02129    0.00100   -0.04236
 92 Li   -0.01504   -0.00741   -0.03542
 93 Li   -0.00424    0.00930   -0.02495
 94 Li   -0.02131    0.00055   -0.04275
 95 Li    0.00426   -0.00756   -0.02138
 96 Li    0.01379    0.00911   -0.03578
 97 Li    0.00206    0.00045   -0.00231
 98 Li   -0.03147   -0.08963   -0.11424
 99 Li    0.00490   -0.00787   -0.02202
100 Li   -0.01098   -0.01825   -0.04272
101 Li   -0.59401   -0.37607   -1.77395
102 Li    0.09645   -0.01921   -0.11866
103 Li    0.01074    0.01822   -0.04233
104 Li   -0.10076    0.01629   -0.12692
105 Li    0.62640    0.32790   -1.82935
106 Li   -0.00121   -0.00113   -0.00204
107 Li   -0.00531    0.00772   -0.02430
108 Li    0.03678    0.09875   -0.13203
109 N     0.00036    0.00037   -0.04441
110 N    -0.00042    0.00035   -0.04433
111 N    -0.00007    0.00024   -0.04440
112 N     0.00056   -0.00028   -0.04413
113 N    -0.00037   -0.00024   -0.04337
114 N    -0.00004   -0.00031   -0.04441
115 N     0.00046   -0.00005   -0.04440
116 N    -0.00035   -0.00003   -0.04330
117 N    -0.00014   -0.00007   -0.04411
118 N     0.00064    0.00095    0.00302
119 N    -0.00042    0.00032    0.00383
120 N    -0.00036   -0.00038    0.00307
121 N     0.00163    0.00035    0.00486
122 N    -0.00082    0.00054    0.00859
123 N    -0.00068   -0.00025    0.00301
124 N     0.00114   -0.00010    0.00308
125 N     0.00009   -0.00078    0.00876
126 N    -0.00122   -0.00068    0.00494
127 N     0.00230    0.00505    0.00238
128 N    -0.00037   -0.00006    0.00648
129 N    -0.00246   -0.00490    0.00268
130 N     0.00787    0.00438    0.01552
131 N    -0.00172    0.00206    0.05147
132 N    -0.00533    0.00026    0.00236
133 N     0.00565   -0.00039    0.00268
134 N     0.00077   -0.00210    0.05369
135 N    -0.00780   -0.00434    0.01614
136 N     0.01084    0.00112    0.12822
137 N     0.00010   -0.00068    0.10928
138 N    -0.01132   -0.00162    0.13023
139 N     0.11293    0.06813    0.32102
140 N    -0.34120    0.59937    1.14126
141 N    -0.00557   -0.00910    0.12877
142 N     0.00768    0.00879    0.12945
143 N     0.36080   -0.61216    1.20705
144 N    -0.12347   -0.06704    0.33117

System changes: positions 

Initializing position-dependent things.

Density initialized from wave functions
                                                  
                                                  
                                                  
                                                  
                                                  
                         Li                       
            Li      Li      Li                    
           Li  N   Li   N  Li   N                 
              Li  N   Li  N    Li N               
             LiLiLi  Li LLi   LiLLi               
               Li   N   Li   N  Li   N            
            Li N  LiLi  N LiLi  N Li              
           Li      LLi     LiLi      Li           
              Li  N   Li  N    Li N               
             LiLiLi  Li LLi   LiLLi               
               Li   N   Li   N  Li   N            
            Li N  LiLi  N LiLi  N Li              
           Li Li   LLiLi   LiLiLi    Li           
             Li   N  Li   N   Li  N               
               LiLi     LLi     LLi               
            Li Li LiNi  LiLiLN  LiLi N            
               N        N       N                 
           Li Li   LLiLi   LiLiLi    Li           
             LiLi N  Li LiN   LiLiN               
                 Li N    Li  N   Li  N            
               Li Li    LiLi    LiLi              
                                                  
                    Li       Li      Li           
                                                  
                                                  
                                                  
                                                  

Positions:
   0 Li     2.565579    5.501001   24.380454    ( 0.0000,  0.0000,  0.0000)
   1 Li     1.717695    0.991763    8.714294    ( 0.0000,  0.0000,  0.0000)
   2 Li     5.153197    0.991763    8.714294    ( 0.0000,  0.0000,  0.0000)
   3 Li     8.588596    0.991763    8.714294    ( 0.0000,  0.0000,  0.0000)
   4 Li    -0.000071    3.967140    8.714294    ( 0.0000,  0.0000,  0.0000)
   5 Li     3.435431    3.967140    8.714294    ( 0.0000,  0.0000,  0.0000)
   6 Li     6.870830    3.967140    8.714294    ( 0.0000,  0.0000,  0.0000)
   7 Li    -1.717786    6.942428    8.714294    ( 0.0000,  0.0000,  0.0000)
   8 Li     1.717717    6.942428    8.714294    ( 0.0000,  0.0000,  0.0000)
   9 Li     5.153115    6.942428    8.714294    ( 0.0000,  0.0000,  0.0000)
  10 Li     0.000000    0.000000   10.653504    ( 0.0000,  0.0000,  0.0000)
  11 Li     3.435502    0.000000   10.653504    ( 0.0000,  0.0000,  0.0000)
  12 Li     6.870901    0.000000   10.653504    ( 0.0000,  0.0000,  0.0000)
  13 Li    -0.000010    1.983525   10.653504    ( 0.0000,  0.0000,  0.0000)
  14 Li     3.435389    1.983525   10.653504    ( 0.0000,  0.0000,  0.0000)
  15 Li     6.870891    1.983525   10.653504    ( 0.0000,  0.0000,  0.0000)
  16 Li    -1.717766    2.975377   10.653504    ( 0.0000,  0.0000,  0.0000)
  17 Li     1.717736    2.975377   10.653504    ( 0.0000,  0.0000,  0.0000)
  18 Li     5.153135    2.975377   10.653504    ( 0.0000,  0.0000,  0.0000)
  19 Li    -1.717776    4.958903   10.653504    ( 0.0000,  0.0000,  0.0000)
  20 Li     1.717623    4.958903   10.653504    ( 0.0000,  0.0000,  0.0000)
  21 Li     5.153125    4.958903   10.653504    ( 0.0000,  0.0000,  0.0000)
  22 Li    -3.435480    5.950666   10.653504    ( 0.0000,  0.0000,  0.0000)
  23 Li     0.000022    5.950666   10.653504    ( 0.0000,  0.0000,  0.0000)
  24 Li     3.435421    5.950666   10.653504    ( 0.0000,  0.0000,  0.0000)
  25 Li    -3.435490    7.934191   10.653504    ( 0.0000,  0.0000,  0.0000)
  26 Li    -0.000091    7.934191   10.653504    ( 0.0000,  0.0000,  0.0000)
  27 Li     3.435411    7.934191   10.653504    ( 0.0000,  0.0000,  0.0000)
  28 Li     1.717695    0.991763   12.627088    ( 0.0000,  0.0000,  0.0000)
  29 Li     5.153197    0.991763   12.627088    ( 0.0000,  0.0000,  0.0000)
  30 Li     8.588596    0.991763   12.627088    ( 0.0000,  0.0000,  0.0000)
  31 Li    -0.000071    3.967140   12.627088    ( 0.0000,  0.0000,  0.0000)
  32 Li     3.435431    3.967140   12.627088    ( 0.0000,  0.0000,  0.0000)
  33 Li     6.870830    3.967140   12.627088    ( 0.0000,  0.0000,  0.0000)
  34 Li    -1.717786    6.942428   12.627088    ( 0.0000,  0.0000,  0.0000)
  35 Li     1.717717    6.942428   12.627088    ( 0.0000,  0.0000,  0.0000)
  36 Li     5.153115    6.942428   12.627088    ( 0.0000,  0.0000,  0.0000)
  37 Li     0.000000    0.000000   14.576373    ( 0.0000,  0.0000,  0.0000)
  38 Li     3.435502    0.000000   14.576373    ( 0.0000,  0.0000,  0.0000)
  39 Li     6.870901    0.000000   14.576373    ( 0.0000,  0.0000,  0.0000)
  40 Li    -0.000010    1.983525   14.576373    ( 0.0000,  0.0000,  0.0000)
  41 Li     3.435389    1.983525   14.576373    ( 0.0000,  0.0000,  0.0000)
  42 Li     6.870891    1.983525   14.576373    ( 0.0000,  0.0000,  0.0000)
  43 Li    -1.717766    2.975377   14.576373    ( 0.0000,  0.0000,  0.0000)
  44 Li     1.717736    2.975377   14.576373    ( 0.0000,  0.0000,  0.0000)
  45 Li     5.153135    2.975377   14.576373    ( 0.0000,  0.0000,  0.0000)
  46 Li    -1.717776    4.958903   14.576373    ( 0.0000,  0.0000,  0.0000)
  47 Li     1.717623    4.958903   14.576373    ( 0.0000,  0.0000,  0.0000)
  48 Li     5.153125    4.958903   14.576373    ( 0.0000,  0.0000,  0.0000)
  49 Li    -3.435480    5.950666   14.576373    ( 0.0000,  0.0000,  0.0000)
  50 Li     0.000022    5.950666   14.576373    ( 0.0000,  0.0000,  0.0000)
  51 Li     3.435421    5.950666   14.576373    ( 0.0000,  0.0000,  0.0000)
  52 Li    -3.435490    7.934191   14.576373    ( 0.0000,  0.0000,  0.0000)
  53 Li    -0.000091    7.934191   14.576373    ( 0.0000,  0.0000,  0.0000)
  54 Li     3.435411    7.934191   14.576373    ( 0.0000,  0.0000,  0.0000)
  55 Li     1.717653    0.991668   16.541084    ( 0.0000,  0.0000,  0.0000)
  56 Li     5.153191    0.991774   16.541050    ( 0.0000,  0.0000,  0.0000)
  57 Li     8.588642    0.991873   16.541087    ( 0.0000,  0.0000,  0.0000)
  58 Li    -0.000286    3.967007   16.541081    ( 0.0000,  0.0000,  0.0000)
  59 Li     3.435534    3.966946   16.541060    ( 0.0000,  0.0000,  0.0000)
  60 Li     6.870938    3.967122   16.541087    ( 0.0000,  0.0000,  0.0000)
  61 Li    -1.717896    6.942438   16.541084    ( 0.0000,  0.0000,  0.0000)
  62 Li     1.717603    6.942615   16.541057    ( 0.0000,  0.0000,  0.0000)
  63 Li     5.153334    6.942551   16.541083    ( 0.0000,  0.0000,  0.0000)
  64 Li    -0.000030    0.000282   18.496623    ( 0.0000,  0.0000,  0.0000)
  65 Li     3.435340   -0.000026   18.496946    ( 0.0000,  0.0000,  0.0000)
  66 Li     6.871011    0.000923   18.495739    ( 0.0000,  0.0000,  0.0000)
  67 Li     0.000007    1.983286   18.496632    ( 0.0000,  0.0000,  0.0000)
  68 Li     3.435275    1.982657   18.495773    ( 0.0000,  0.0000,  0.0000)
  69 Li     6.870942    1.983603   18.496944    ( 0.0000,  0.0000,  0.0000)
  70 Li    -1.717995    2.975212   18.496468    ( 0.0000,  0.0000,  0.0000)
  71 Li     1.717141    2.974889   18.496059    ( 0.0000,  0.0000,  0.0000)
  72 Li     5.153987    2.975005   18.495777    ( 0.0000,  0.0000,  0.0000)
  73 Li    -1.717990    4.959054   18.496636    ( 0.0000,  0.0000,  0.0000)
  74 Li     1.717177    4.958583   18.495848    ( 0.0000,  0.0000,  0.0000)
  75 Li     5.153798    4.959116   18.496060    ( 0.0000,  0.0000,  0.0000)
  76 Li    -3.435259    5.950491   18.496619    ( 0.0000,  0.0000,  0.0000)
  77 Li    -0.000760    5.950424   18.496022    ( 0.0000,  0.0000,  0.0000)
  78 Li     3.435914    5.950916   18.495848    ( 0.0000,  0.0000,  0.0000)
  79 Li    -3.435234    7.934346   18.496453    ( 0.0000,  0.0000,  0.0000)
  80 Li    -0.000916    7.934549   18.495735    ( 0.0000,  0.0000,  0.0000)
  81 Li     3.435967    7.934675   18.496023    ( 0.0000,  0.0000,  0.0000)
  82 Li     1.716672    0.990777   20.462075    ( 0.0000,  0.0000,  0.0000)
  83 Li     5.153160    0.991852   20.461798    ( 0.0000,  0.0000,  0.0000)
  84 Li     8.589653    0.992869   20.462120    ( 0.0000,  0.0000,  0.0000)
  85 Li    -0.001867    3.966035   20.464695    ( 0.0000,  0.0000,  0.0000)
  86 Li     3.435688    3.966679   20.471936    ( 0.0000,  0.0000,  0.0000)
  87 Li     6.872218    3.967502   20.462087    ( 0.0000,  0.0000,  0.0000)
  88 Li    -1.719247    6.942038   20.462109    ( 0.0000,  0.0000,  0.0000)
  89 Li     1.717462    6.942855   20.472459    ( 0.0000,  0.0000,  0.0000)
  90 Li     5.154952    6.943425   20.464797    ( 0.0000,  0.0000,  0.0000)
  91 Li     0.002124    0.000152   22.591043    ( 0.0000,  0.0000,  0.0000)
  92 Li     3.433980   -0.000750   22.591821    ( 0.0000,  0.0000,  0.0000)
  93 Li     6.870362    0.001436   22.592673    ( 0.0000,  0.0000,  0.0000)
  94 Li    -0.002149    1.983533   22.591008    ( 0.0000,  0.0000,  0.0000)
  95 Li     3.435931    1.982274   22.593052    ( 0.0000,  0.0000,  0.0000)
  96 Li     6.872285    1.984447   22.591783    ( 0.0000,  0.0000,  0.0000)
  97 Li    -1.717697    2.975338   22.595120    ( 0.0000,  0.0000,  0.0000)
  98 Li     1.714268    2.966283   22.583150    ( 0.0000,  0.0000,  0.0000)
  99 Li     5.153995    2.974245   22.592986    ( 0.0000,  0.0000,  0.0000)
 100 Li    -1.718913    4.957104   22.591009    ( 0.0000,  0.0000,  0.0000)
 101 Li     1.653501    4.918365   22.411726    ( 0.0000,  0.0000,  0.0000)
 102 Li     5.163058    4.957185   22.582682    ( 0.0000,  0.0000,  0.0000)
 103 Li    -3.434357    5.952465   22.591048    ( 0.0000,  0.0000,  0.0000)
 104 Li    -0.010419    5.952106   22.581845    ( 0.0000,  0.0000,  0.0000)
 105 Li     3.502996    5.986094   22.405967    ( 0.0000,  0.0000,  0.0000)
 106 Li    -3.435462    7.934161   22.595147    ( 0.0000,  0.0000,  0.0000)
 107 Li    -0.001005    7.935316   22.592741    ( 0.0000,  0.0000,  0.0000)
 108 Li     3.439436    7.944304   22.581306    ( 0.0000,  0.0000,  0.0000)
 109 N      1.717695    0.991763   10.638094    ( 0.0000,  0.0000,  0.0000)
 110 N      5.153197    0.991763   10.638094    ( 0.0000,  0.0000,  0.0000)
 111 N      8.588596    0.991763   10.638094    ( 0.0000,  0.0000,  0.0000)
 112 N     -0.000071    3.967140   10.638094    ( 0.0000,  0.0000,  0.0000)
 113 N      3.435431    3.967140   10.638094    ( 0.0000,  0.0000,  0.0000)
 114 N      6.870830    3.967140   10.638094    ( 0.0000,  0.0000,  0.0000)
 115 N     -1.717786    6.942428   10.638094    ( 0.0000,  0.0000,  0.0000)
 116 N      1.717717    6.942428   10.638094    ( 0.0000,  0.0000,  0.0000)
 117 N      5.153115    6.942428   10.638094    ( 0.0000,  0.0000,  0.0000)
 118 N      1.717695    0.991763   14.562149    ( 0.0000,  0.0000,  0.0000)
 119 N      5.153197    0.991763   14.562149    ( 0.0000,  0.0000,  0.0000)
 120 N      8.588596    0.991763   14.562149    ( 0.0000,  0.0000,  0.0000)
 121 N     -0.000071    3.967140   14.562149    ( 0.0000,  0.0000,  0.0000)
 122 N      3.435431    3.967140   14.562149    ( 0.0000,  0.0000,  0.0000)
 123 N      6.870830    3.967140   14.562149    ( 0.0000,  0.0000,  0.0000)
 124 N     -1.717786    6.942428   14.562149    ( 0.0000,  0.0000,  0.0000)
 125 N      1.717717    6.942428   14.562149    ( 0.0000,  0.0000,  0.0000)
 126 N      5.153115    6.942428   14.562149    ( 0.0000,  0.0000,  0.0000)
 127 N      1.717953    0.992294   18.477874    ( 0.0000,  0.0000,  0.0000)
 128 N      5.153157    0.991757   18.478347    ( 0.0000,  0.0000,  0.0000)
 129 N      8.588322    0.991248   18.477906    ( 0.0000,  0.0000,  0.0000)
 130 N      0.000736    3.967589   18.479164    ( 0.0000,  0.0000,  0.0000)
 131 N      3.435270    3.967318   18.482795    ( 0.0000,  0.0000,  0.0000)
 132 N      6.870261    3.967153   18.477871    ( 0.0000,  0.0000,  0.0000)
 133 N     -1.717183    6.942402   18.477907    ( 0.0000,  0.0000,  0.0000)
 134 N      1.717774    6.942245   18.483007    ( 0.0000,  0.0000,  0.0000)
 135 N      5.152316    6.941984   18.479227    ( 0.0000,  0.0000,  0.0000)
 136 N      1.718791    0.991885   22.385214    ( 0.0000,  0.0000,  0.0000)
 137 N      5.153203    0.991705   22.383239    ( 0.0000,  0.0000,  0.0000)
 138 N      8.587450    0.991580   22.385427    ( 0.0000,  0.0000,  0.0000)
 139 N      0.013082    3.975054   22.405967    ( 0.0000,  0.0000,  0.0000)
 140 N      3.399493    4.030314   22.491015    ( 0.0000,  0.0000,  0.0000)
 141 N      6.870252    3.966222   22.385273    ( 0.0000,  0.0000,  0.0000)
 142 N     -1.716993    6.943307   22.385346    ( 0.0000,  0.0000,  0.0000)
 143 N      1.755672    6.878002   22.497773    ( 0.0000,  0.0000,  0.0000)
 144 N      5.138829    6.934622   22.407042    ( 0.0000,  0.0000,  0.0000)

Unit cell:
           periodic     x           y           z      points  spacing
  1. axis:    yes   10.306300    0.000000    0.000000    54     0.1653
  2. axis:    yes   -5.153194    8.925954    0.000000    54     0.1653
  3. axis:    yes    0.000000    0.000000   29.633400   160     0.1852

  Lengths:  10.306300  10.306700  29.633400
  Angles:   90.000000  90.000000 119.999001

Effective grid spacing dv^(1/3) = 0.1801

                     log10-error:    total        iterations:
           time      wfs    density  energy       fermi  poisson
iter:   1  21:56:53  -1.83         -519.837684    4             
iter:   2  21:57:19  -2.93  -1.94  -520.290831    36            
iter:   3  21:57:44  -3.76  -1.64  -519.664158    34            
iter:   4  21:58:10  -4.11  -2.31  -519.645052    4             
iter:   5  21:58:36  -4.37  -2.37  -519.637880    4             
iter:   6  21:59:01  -3.52  -2.41  -519.634592    4             
iter:   7  21:59:27  -4.16  -2.40  -519.609290    5             
iter:   8  21:59:53  -4.47  -2.68  -519.583272    5             
iter:   9  22:00:18  -4.98  -2.80  -519.583090    4             
iter:  10  22:00:44  -6.03  -2.64  -519.582328    4             
iter:  11  22:01:09  -5.97  -2.86  -519.581422    3             
iter:  12  22:01:35  -5.23  -2.95  -519.593783    4             
iter:  13  22:02:01  -5.00  -2.44  -519.585214    5             
iter:  14  22:02:26  -6.01  -3.05  -519.584970    3             
iter:  15  22:02:52  -5.88  -3.08  -519.582434    4             
iter:  16  22:03:18  -6.28  -3.25  -519.581238    4             
iter:  17  22:03:43  -6.65  -3.43  -519.580896    3             
iter:  18  22:04:09  -6.42  -3.57  -519.580327    3             
iter:  19  22:04:34  -6.90  -3.68  -519.580627    3             
iter:  20  22:05:00  -7.59  -3.98  -519.580440    3             
iter:  21  22:05:26  -7.90  -4.02  -519.580406    2             
iter:  22  22:05:51  -8.01  -3.96  -519.580470    3             
iter:  23  22:06:17  -7.82  -4.11  -519.580477    2             
iter:  24  22:06:42  -7.77  -4.16  -519.580535    3             
iter:  25  22:07:08  -7.87  -4.21  -519.580531    2             
iter:  26  22:07:34  -7.71  -4.29  -519.580572    3             
iter:  27  22:07:59  -8.16  -4.31  -519.580557    2             

Converged after 27 iterations.

Dipole moment: (-4.484489, 2.831129, -0.119836) |e|*Ang

Energy contributions relative to reference atoms: (reference = -75445.846558)

Kinetic:       +674.297434
Potential:     -492.351789
External:        +0.000000
XC:            -698.553850
Entropy (-ST):   -0.047977
Local:           -2.948363
--------------------------
Free energy:   -519.604545
Extrapolated:  -519.580557

Fermi level: -0.55468

Showing only first 2 kpts
 Kpt  Band  Eigenvalues  Occupancy
  0   142     -0.47082    0.00331
  0   143     -0.30203    0.00000
  0   144     -0.28166    0.00000
  0   145      0.02654    0.00000

  1   142     -0.60492    0.41110
  1   143     -0.59225    0.38554
  1   144     -0.55311    0.21353
  1   145     -0.45055    0.00242


No gap

Forces in eV/Ang:
  0 Li   -0.02509    0.03464   -0.32208
  1 Li    0.00002    0.00003   -0.01189
  2 Li   -0.00002    0.00005   -0.01190
  3 Li    0.00000    0.00001   -0.01190
  4 Li    0.00005   -0.00003   -0.01191
  5 Li   -0.00004    0.00002   -0.01190
  6 Li   -0.00002   -0.00002   -0.01190
  7 Li    0.00004   -0.00003   -0.01190
  8 Li   -0.00000   -0.00001   -0.01192
  9 Li   -0.00003   -0.00002   -0.01194
 10 Li    0.00005    0.00015   -0.00909
 11 Li   -0.00072    0.00018   -0.00905
 12 Li   -0.00015    0.00009   -0.00921
 13 Li   -0.00006    0.00038   -0.00909
 14 Li    0.00038   -0.00002   -0.00921
 15 Li   -0.00034    0.00029   -0.00905
 16 Li    0.00029   -0.00031   -0.00913
 17 Li   -0.00054   -0.00027   -0.00921
 18 Li    0.00027   -0.00051   -0.00920
 19 Li    0.00014    0.00016   -0.00909
 20 Li    0.00059   -0.00025   -0.00935
 21 Li    0.00008   -0.00003   -0.00921
 22 Li    0.00013    0.00001   -0.00910
 23 Li   -0.00085    0.00013   -0.00922
 24 Li   -0.00008   -0.00005   -0.00936
 25 Li    0.00025    0.00014   -0.00913
 26 Li    0.00051   -0.00012   -0.00921
 27 Li    0.00004    0.00004   -0.00922
 28 Li   -0.00005   -0.00022   -0.00853
 29 Li   -0.00002    0.00009   -0.00868
 30 Li    0.00010    0.00029   -0.00854
 31 Li   -0.00038   -0.00032   -0.00886
 32 Li    0.00012   -0.00029   -0.00949
 33 Li    0.00023   -0.00009   -0.00852
 34 Li   -0.00023    0.00001   -0.00854
 35 Li   -0.00018    0.00029   -0.00953
 36 Li    0.00041    0.00023   -0.00887
 37 Li   -0.00007    0.00091    0.01140
 38 Li   -0.00089    0.00010    0.01184
 39 Li    0.00015    0.00211    0.01051
 40 Li    0.00011   -0.00035    0.01140
 41 Li    0.00005   -0.00196    0.01055
 42 Li   -0.00019    0.00039    0.01184
 43 Li   -0.00039   -0.00067    0.01115
 44 Li   -0.00170   -0.00156    0.01058
 45 Li    0.00211   -0.00119    0.01056
 46 Li   -0.00042    0.00062    0.01142
 47 Li   -0.00056   -0.00101    0.00947
 48 Li    0.00177    0.00030    0.01057
 49 Li    0.00070   -0.00051    0.01139
 50 Li   -0.00261   -0.00030    0.01051
 51 Li    0.00113    0.00055    0.00945
 52 Li    0.00093    0.00057    0.01114
 53 Li   -0.00139    0.00064    0.01050
 54 Li    0.00126    0.00136    0.01050
 55 Li   -0.00060   -0.00205   -0.00226
 56 Li   -0.00013    0.00017   -0.00149
 57 Li    0.00070    0.00233   -0.00225
 58 Li   -0.00353   -0.00220    0.00045
 59 Li    0.00147   -0.00272    0.01030
 60 Li    0.00219   -0.00059   -0.00230
 61 Li   -0.00224    0.00051   -0.00224
 62 Li   -0.00155    0.00254    0.01086
 63 Li    0.00362    0.00200    0.00055
 64 Li    0.00139    0.00147   -0.00471
 65 Li   -0.00093   -0.00039   -0.00140
 66 Li   -0.00056    0.00366   -0.00508
 67 Li   -0.00111   -0.00115   -0.00490
 68 Li    0.00043   -0.00319   -0.00520
 69 Li    0.00084    0.00059   -0.00148
 70 Li   -0.00096   -0.00052   -0.00765
 71 Li   -0.00095   -0.00234    0.00131
 72 Li    0.00245   -0.00198   -0.00517
 73 Li   -0.00164   -0.00066   -0.00474
 74 Li   -0.00086   -0.00088    0.00476
 75 Li    0.00225   -0.00052    0.00148
 76 Li    0.00179    0.00039   -0.00487
 77 Li   -0.00252   -0.00001    0.00123
 78 Li    0.00097    0.00031    0.00463
 79 Li    0.00107    0.00072   -0.00760
 80 Li   -0.00282    0.00221   -0.00510
 81 Li    0.00100    0.00229    0.00141
 82 Li   -0.00728   -0.01433    0.04554
 83 Li   -0.00076    0.00111    0.03587
 84 Li    0.00794    0.01646    0.04557
 85 Li   -0.08297   -0.04891    0.05760
 86 Li    0.03047   -0.05514    0.27112
 87 Li    0.01652   -0.00110    0.04564
 88 Li   -0.01777    0.00116    0.04543
 89 Li   -0.03030    0.05035    0.28669
 90 Li    0.08597    0.04873    0.05895
 91 Li    0.02620    0.00153    0.00890
 92 Li   -0.00985   -0.00464   -0.01063
 93 Li    0.02850   -0.08113    0.07372
 94 Li   -0.02353   -0.00043    0.00675
 95 Li   -0.02766    0.07999    0.07148
 96 Li    0.00903    0.00629   -0.01034
 97 Li    0.01844    0.01130    0.04276
 98 Li    0.02569   -0.03747    0.13167
 99 Li   -0.05461    0.06365    0.07131
100 Li   -0.01425   -0.02178    0.00766
101 Li    0.34081    0.20752   -0.74831
102 Li    0.01906   -0.04051    0.13279
103 Li    0.01194    0.02072    0.00792
104 Li   -0.00524    0.03274    0.12337
105 Li   -0.35458   -0.19371   -0.76829
106 Li   -0.02028   -0.01103    0.04346
107 Li    0.05724   -0.06553    0.07378
108 Li   -0.02516    0.02056    0.12388
109 N     0.00030    0.00039   -0.04123
110 N    -0.00042    0.00036   -0.04104
111 N    -0.00001    0.00022   -0.04119
112 N     0.00078   -0.00016   -0.04041
113 N    -0.00055    0.00009   -0.04894
114 N    -0.00002   -0.00025   -0.04124
115 N     0.00044   -0.00012   -0.04121
116 N    -0.00016   -0.00037   -0.04935
117 N    -0.00036   -0.00020   -0.04041
118 N     0.00091    0.00142    0.00087
119 N    -0.00039    0.00028    0.00167
120 N    -0.00066   -0.00092    0.00099
121 N     0.00266    0.00098    0.00401
122 N    -0.00135    0.00151    0.01007
123 N    -0.00124   -0.00024    0.00087
124 N     0.00172   -0.00011    0.00097
125 N     0.00061   -0.00168    0.01043
126 N    -0.00229   -0.00126    0.00418
127 N    -0.00167   -0.00140    0.00173
128 N     0.00013   -0.00001    0.00062
129 N     0.00139    0.00117    0.00199
130 N    -0.00110   -0.00061    0.01938
131 N     0.00130   -0.00176    0.08034
132 N     0.00187    0.00075    0.00177
133 N    -0.00176   -0.00081    0.00189
134 N    -0.00098    0.00201    0.08577
135 N     0.00100    0.00074    0.02023
136 N     0.01688   -0.00210    0.00290
137 N     0.00079   -0.00164   -0.00618
138 N    -0.01747    0.00449    0.00022
139 N    -0.31095   -0.18185   -0.07360
140 N     0.00829   -0.01842    0.33467
141 N    -0.00465   -0.01605    0.00242
142 N     0.00480    0.01678    0.00014
143 N     0.00520   -0.00531    0.39151
144 N     0.31853    0.18296   -0.07397

System changes: positions 

Initializing position-dependent things.

Density initialized from wave functions
                                                  
                                                  
                                                  
                                                  
                                                  
                         Li                       
            Li      Li      Li                    
           Li  N   Li   N  Li   N                 
              Li  N   Li  N    Li N               
             LiLiLi  Li LLi   LiLLi               
               Li   N   Li   N  Li   N            
            Li N  LiLi  N LiLi  N Li              
           Li      LLi     LiLi      Li           
              Li  N   Li  N    Li N               
             LiLiLi  Li LLi   LiLLi               
               Li   N   Li   N  Li   N            
            Li N  LiLi  N LiLi  N Li              
           Li Li   LLiLi   LiLiLi    Li           
             Li   N  Li   N   Li  N               
               LiLi     LLi     LLi               
            Li Li LiNi  LiLiLN  LiLi N            
               N        N       N                 
           Li Li   LLiLi   LiLiLi    Li           
             LiLi N  Li LiN   LiLiN               
                 Li N    Li  N   Li  N            
               Li Li    LiLi    LiLi              
                                                  
                    Li       Li      Li           
                                                  
                                                  
                                                  
                                                  

Positions:
   0 Li     2.564198    5.502719   24.396775    ( 0.0000,  0.0000,  0.0000)
   1 Li     1.717695    0.991763    8.714294    ( 0.0000,  0.0000,  0.0000)
   2 Li     5.153197    0.991763    8.714294    ( 0.0000,  0.0000,  0.0000)
   3 Li     8.588596    0.991763    8.714294    ( 0.0000,  0.0000,  0.0000)
   4 Li    -0.000071    3.967140    8.714294    ( 0.0000,  0.0000,  0.0000)
   5 Li     3.435431    3.967140    8.714294    ( 0.0000,  0.0000,  0.0000)
   6 Li     6.870830    3.967140    8.714294    ( 0.0000,  0.0000,  0.0000)
   7 Li    -1.717786    6.942428    8.714294    ( 0.0000,  0.0000,  0.0000)
   8 Li     1.717717    6.942428    8.714294    ( 0.0000,  0.0000,  0.0000)
   9 Li     5.153115    6.942428    8.714294    ( 0.0000,  0.0000,  0.0000)
  10 Li     0.000000    0.000000   10.653504    ( 0.0000,  0.0000,  0.0000)
  11 Li     3.435502    0.000000   10.653504    ( 0.0000,  0.0000,  0.0000)
  12 Li     6.870901    0.000000   10.653504    ( 0.0000,  0.0000,  0.0000)
  13 Li    -0.000010    1.983525   10.653504    ( 0.0000,  0.0000,  0.0000)
  14 Li     3.435389    1.983525   10.653504    ( 0.0000,  0.0000,  0.0000)
  15 Li     6.870891    1.983525   10.653504    ( 0.0000,  0.0000,  0.0000)
  16 Li    -1.717766    2.975377   10.653504    ( 0.0000,  0.0000,  0.0000)
  17 Li     1.717736    2.975377   10.653504    ( 0.0000,  0.0000,  0.0000)
  18 Li     5.153135    2.975377   10.653504    ( 0.0000,  0.0000,  0.0000)
  19 Li    -1.717776    4.958903   10.653504    ( 0.0000,  0.0000,  0.0000)
  20 Li     1.717623    4.958903   10.653504    ( 0.0000,  0.0000,  0.0000)
  21 Li     5.153125    4.958903   10.653504    ( 0.0000,  0.0000,  0.0000)
  22 Li    -3.435480    5.950666   10.653504    ( 0.0000,  0.0000,  0.0000)
  23 Li     0.000022    5.950666   10.653504    ( 0.0000,  0.0000,  0.0000)
  24 Li     3.435421    5.950666   10.653504    ( 0.0000,  0.0000,  0.0000)
  25 Li    -3.435490    7.934191   10.653504    ( 0.0000,  0.0000,  0.0000)
  26 Li    -0.000091    7.934191   10.653504    ( 0.0000,  0.0000,  0.0000)
  27 Li     3.435411    7.934191   10.653504    ( 0.0000,  0.0000,  0.0000)
  28 Li     1.717695    0.991763   12.627088    ( 0.0000,  0.0000,  0.0000)
  29 Li     5.153197    0.991763   12.627088    ( 0.0000,  0.0000,  0.0000)
  30 Li     8.588596    0.991763   12.627088    ( 0.0000,  0.0000,  0.0000)
  31 Li    -0.000071    3.967140   12.627088    ( 0.0000,  0.0000,  0.0000)
  32 Li     3.435431    3.967140   12.627088    ( 0.0000,  0.0000,  0.0000)
  33 Li     6.870830    3.967140   12.627088    ( 0.0000,  0.0000,  0.0000)
  34 Li    -1.717786    6.942428   12.627088    ( 0.0000,  0.0000,  0.0000)
  35 Li     1.717717    6.942428   12.627088    ( 0.0000,  0.0000,  0.0000)
  36 Li     5.153115    6.942428   12.627088    ( 0.0000,  0.0000,  0.0000)
  37 Li     0.000000    0.000000   14.576373    ( 0.0000,  0.0000,  0.0000)
  38 Li     3.435502    0.000000   14.576373    ( 0.0000,  0.0000,  0.0000)
  39 Li     6.870901    0.000000   14.576373    ( 0.0000,  0.0000,  0.0000)
  40 Li    -0.000010    1.983525   14.576373    ( 0.0000,  0.0000,  0.0000)
  41 Li     3.435389    1.983525   14.576373    ( 0.0000,  0.0000,  0.0000)
  42 Li     6.870891    1.983525   14.576373    ( 0.0000,  0.0000,  0.0000)
  43 Li    -1.717766    2.975377   14.576373    ( 0.0000,  0.0000,  0.0000)
  44 Li     1.717736    2.975377   14.576373    ( 0.0000,  0.0000,  0.0000)
  45 Li     5.153135    2.975377   14.576373    ( 0.0000,  0.0000,  0.0000)
  46 Li    -1.717776    4.958903   14.576373    ( 0.0000,  0.0000,  0.0000)
  47 Li     1.717623    4.958903   14.576373    ( 0.0000,  0.0000,  0.0000)
  48 Li     5.153125    4.958903   14.576373    ( 0.0000,  0.0000,  0.0000)
  49 Li    -3.435480    5.950666   14.576373    ( 0.0000,  0.0000,  0.0000)
  50 Li     0.000022    5.950666   14.576373    ( 0.0000,  0.0000,  0.0000)
  51 Li     3.435421    5.950666   14.576373    ( 0.0000,  0.0000,  0.0000)
  52 Li    -3.435490    7.934191   14.576373    ( 0.0000,  0.0000,  0.0000)
  53 Li    -0.000091    7.934191   14.576373    ( 0.0000,  0.0000,  0.0000)
  54 Li     3.435411    7.934191   14.576373    ( 0.0000,  0.0000,  0.0000)
  55 Li     1.717634    0.991611   16.540860    ( 0.0000,  0.0000,  0.0000)
  56 Li     5.153187    0.991779   16.540832    ( 0.0000,  0.0000,  0.0000)
  57 Li     8.588664    0.991938   16.540863    ( 0.0000,  0.0000,  0.0000)
  58 Li    -0.000395    3.966939   16.540905    ( 0.0000,  0.0000,  0.0000)
  59 Li     3.435582    3.966855   16.541057    ( 0.0000,  0.0000,  0.0000)
  60 Li     6.871000    3.967108   16.540863    ( 0.0000,  0.0000,  0.0000)
  61 Li    -1.717960    6.942449   16.540860    ( 0.0000,  0.0000,  0.0000)
  62 Li     1.717551    6.942700   16.541064    ( 0.0000,  0.0000,  0.0000)
  63 Li     5.153446    6.942613   16.540908    ( 0.0000,  0.0000,  0.0000)
  64 Li    -0.000012    0.000368   18.496235    ( 0.0000,  0.0000,  0.0000)
  65 Li     3.435310   -0.000039   18.496686    ( 0.0000,  0.0000,  0.0000)
  66 Li     6.871023    0.001184   18.495159    ( 0.0000,  0.0000,  0.0000)
  67 Li    -0.000009    1.983215   18.496243    ( 0.0000,  0.0000,  0.0000)
  68 Li     3.435259    1.982416   18.495197    ( 0.0000,  0.0000,  0.0000)
  69 Li     6.870968    1.983630   18.496683    ( 0.0000,  0.0000,  0.0000)
  70 Li    -1.718060    2.975168   18.495994    ( 0.0000,  0.0000,  0.0000)
  71 Li     1.717020    2.974743   18.495661    ( 0.0000,  0.0000,  0.0000)
  72 Li     5.154211    2.974891   18.495202    ( 0.0000,  0.0000,  0.0000)
  73 Li    -1.718065    4.959074   18.496251    ( 0.0000,  0.0000,  0.0000)
  74 Li     1.717068    4.958500   18.495468    ( 0.0000,  0.0000,  0.0000)
  75 Li     5.153980    4.959151   18.495665    ( 0.0000,  0.0000,  0.0000)
  76 Li    -3.435180    5.950461   18.496227    ( 0.0000,  0.0000,  0.0000)
  77 Li    -0.000949    5.950372   18.495614    ( 0.0000,  0.0000,  0.0000)
  78 Li     3.436036    5.950975   18.495465    ( 0.0000,  0.0000,  0.0000)
  79 Li    -3.435161    7.934392   18.495978    ( 0.0000,  0.0000,  0.0000)
  80 Li    -0.001141    7.934664   18.495153    ( 0.0000,  0.0000,  0.0000)
  81 Li     3.436102    7.934819   18.495619    ( 0.0000,  0.0000,  0.0000)
  82 Li     1.716325    0.990310   20.463881    ( 0.0000,  0.0000,  0.0000)
  83 Li     5.153139    0.991891   20.463370    ( 0.0000,  0.0000,  0.0000)
  84 Li     8.590019    0.993400   20.463935    ( 0.0000,  0.0000,  0.0000)
  85 Li    -0.003741    3.964920   20.467274    ( 0.0000,  0.0000,  0.0000)
  86 Li     3.436292    3.965587   20.479908    ( 0.0000,  0.0000,  0.0000)
  87 Li     6.872809    3.967559   20.463896    ( 0.0000,  0.0000,  0.0000)
  88 Li    -1.719876    6.941976   20.463919    ( 0.0000,  0.0000,  0.0000)
  89 Li     1.716862    6.943852   20.480825    ( 0.0000,  0.0000,  0.0000)
  90 Li     5.156890    6.944513   20.467422    ( 0.0000,  0.0000,  0.0000)
  91 Li     0.003045    0.000209   22.590269    ( 0.0000,  0.0000,  0.0000)
  92 Li     3.433481   -0.000992   22.590860    ( 0.0000,  0.0000,  0.0000)
  93 Li     6.870763    0.000268   22.593412    ( 0.0000,  0.0000,  0.0000)
  94 Li    -0.003025    1.983528   22.590188    ( 0.0000,  0.0000,  0.0000)
  95 Li     3.435545    1.983461   22.593832    ( 0.0000,  0.0000,  0.0000)
  96 Li     6.872743    1.984756   22.590819    ( 0.0000,  0.0000,  0.0000)
  97 Li    -1.717346    2.975536   22.595818    ( 0.0000,  0.0000,  0.0000)
  98 Li     1.714004    2.963684   22.582927    ( 0.0000,  0.0000,  0.0000)
  99 Li     5.153185    2.975158   22.593748    ( 0.0000,  0.0000,  0.0000)
 100 Li    -1.719409    4.956330   22.590206    ( 0.0000,  0.0000,  0.0000)
 101 Li     1.646161    4.913581   22.359497    ( 0.0000,  0.0000,  0.0000)
 102 Li     5.165499    4.956086   22.582381    ( 0.0000,  0.0000,  0.0000)
 103 Li    -3.433906    5.953220   22.590258    ( 0.0000,  0.0000,  0.0000)
 104 Li    -0.012718    5.953006   22.581198    ( 0.0000,  0.0000,  0.0000)
 105 Li     3.510814    5.990051   22.352164    ( 0.0000,  0.0000,  0.0000)
 106 Li    -3.435825    7.933954   22.595863    ( 0.0000,  0.0000,  0.0000)
 107 Li    -0.000159    7.934367   22.593496    ( 0.0000,  0.0000,  0.0000)
 108 Li     3.439828    7.946812   22.580555    ( 0.0000,  0.0000,  0.0000)
 109 N      1.717695    0.991763   10.638094    ( 0.0000,  0.0000,  0.0000)
[...]

Converged after 12 iterations.

Dipole moment: (-3.231768, 4.186986, 0.417038) |e|*Ang

Energy contributions relative to reference atoms: (reference = -75445.846558)

Kinetic:       +630.074958
Potential:     -463.558952
External:        +0.000000
XC:            -685.868054
Entropy (-ST):   -0.034505
Local:           -2.945669
--------------------------
Free energy:   -522.332222
Extrapolated:  -522.314970

Fermi level: -0.35268

Showing only first 2 kpts
 Kpt  Band  Eigenvalues  Occupancy
  0   142     -0.41346    0.21207
  0   143     -0.04279    0.00000
  0   144     -0.02110    0.00000
  0   145      0.17083    0.00000

  1   142     -0.45941    0.44232
  1   143     -0.43390    0.43692
  1   144     -0.34127    0.16050
  1   145     -0.14695    0.00002


No gap

Forces in eV/Ang:
  0 Li   -0.00471   -0.00238   -0.03573
  1 Li    0.00000    0.00002   -0.02835
  2 Li   -0.00002    0.00004   -0.02813
  3 Li    0.00004   -0.00001   -0.02846
  4 Li    0.00004   -0.00003   -0.02871
  5 Li   -0.00004    0.00006   -0.02876
  6 Li   -0.00001    0.00002   -0.02855
  7 Li    0.00002   -0.00003   -0.02821
  8 Li    0.00003   -0.00004   -0.02860
  9 Li   -0.00004   -0.00001   -0.02858
 10 Li    0.00004    0.00047   -0.01728
 11 Li   -0.00053    0.00012   -0.01658
 12 Li   -0.00036    0.00070   -0.01706
 13 Li    0.00006   -0.00023   -0.01678
 14 Li    0.00049   -0.00096   -0.01711
 15 Li   -0.00057    0.00004   -0.01663
 16 Li   -0.00008   -0.00071   -0.01713
 17 Li   -0.00074   -0.00106   -0.01735
 18 Li    0.00084   -0.00122   -0.01731
 19 Li   -0.00029    0.00085   -0.01703
 20 Li    0.00060    0.00004   -0.01755
 21 Li    0.00053    0.00035   -0.01691
 22 Li    0.00050    0.00010   -0.01695
 23 Li   -0.00147    0.00062   -0.01726
 24 Li    0.00015    0.00037   -0.01659
 25 Li    0.00066    0.00014   -0.01719
 26 Li   -0.00015    0.00020   -0.01678
 27 Li    0.00030    0.00018   -0.01693
 28 Li    0.00043   -0.00137   -0.04065
 29 Li   -0.00054   -0.00111   -0.04664
 30 Li   -0.00010    0.00012   -0.04090
 31 Li   -0.00046   -0.00030   -0.03544
 32 Li    0.00089    0.00016   -0.02902
 33 Li    0.00019    0.00011   -0.04123
 34 Li   -0.00057    0.00119   -0.04104
 35 Li    0.00009    0.00120   -0.02936
 36 Li    0.00005   -0.00019   -0.03431
 37 Li    0.00631   -0.00840    0.02363
 38 Li   -0.00660   -0.00235   -0.02647
 39 Li    0.00178   -0.01857    0.00080
 40 Li   -0.00271   -0.00922    0.00635
 41 Li    0.00778    0.02096    0.03653
 42 Li    0.00197    0.00365   -0.01029
 43 Li   -0.00474    0.00118   -0.01136
 44 Li    0.00862    0.01848    0.00032
 45 Li   -0.01661    0.00702    0.00357
 46 Li   -0.00192    0.00225    0.02395
 47 Li   -0.00984   -0.00317    0.03995
 48 Li   -0.00023   -0.00799    0.00671
 49 Li    0.00310    0.01048    0.00677
 50 Li    0.01492   -0.00559    0.01469
 51 Li   -0.00914   -0.00069   -0.03573
 52 Li   -0.00988   -0.00193    0.07715
 53 Li    0.01958   -0.00689    0.03240
 54 Li   -0.00124    0.00486    0.02666
 55 Li   -0.03349   -0.01549   -0.00605
 56 Li    0.00925    0.01787   -0.01382
 57 Li    0.01821    0.01961   -0.02546
 58 Li    0.01438    0.01776    0.04475
 59 Li   -0.02156   -0.00906   -0.00782
 60 Li    0.02735   -0.00368   -0.01500
 61 Li   -0.03619   -0.02117   -0.01368
 62 Li   -0.01158   -0.01115   -0.01970
 63 Li    0.00875    0.02140    0.01445
 64 Li   -0.01347   -0.01892    0.01418
 65 Li   -0.01919   -0.00809   -0.03237
 66 Li   -0.01634   -0.02151    0.00661
 67 Li   -0.00379    0.03649    0.02798
 68 Li   -0.00588   -0.00075    0.00201
 69 Li    0.02334    0.01330    0.02083
 70 Li    0.03815    0.03570   -0.03919
 71 Li   -0.00836   -0.02319    0.03464
 72 Li   -0.01459   -0.00710    0.02255
 73 Li    0.02619   -0.01308    0.03892
 74 Li    0.00333    0.01758   -0.07394
 75 Li    0.00571    0.01903   -0.00679
 76 Li   -0.02509    0.01211    0.00967
 77 Li   -0.00984    0.01439    0.01425
 78 Li    0.02559    0.02729   -0.02306
 79 Li   -0.00239   -0.00724    0.02817
 80 Li    0.01508   -0.01593    0.01633
 81 Li    0.00042   -0.01503   -0.02531
 82 Li   -0.00739   -0.01833    0.01787
 83 Li   -0.01438   -0.02383   -0.01892
 84 Li    0.02271   -0.00063    0.01384
 85 Li   -0.01920    0.00173    0.01533
 86 Li   -0.02039    0.00391    0.04424
 87 Li    0.03863    0.00052    0.01100
 88 Li    0.00297   -0.00679    0.02722
 89 Li   -0.00782   -0.00763   -0.00241
 90 Li    0.04049    0.04962    0.00227
 91 Li    0.03632    0.05460   -0.00808
 92 Li   -0.01624   -0.00547    0.01569
 93 Li    0.00525    0.00040   -0.00666
 94 Li   -0.02358   -0.02944   -0.01404
 95 Li    0.01995   -0.02464    0.03162
 96 Li   -0.00693    0.01348   -0.00651
 97 Li   -0.02385   -0.01170   -0.01635
 98 Li   -0.00462    0.02364    0.04462
 99 Li   -0.00668   -0.01214   -0.00793
100 Li   -0.03342    0.00406    0.02723
101 Li    0.02790    0.02653    0.02218
102 Li   -0.00715    0.03312    0.03221
103 Li    0.02083    0.01565   -0.02547
104 Li    0.01799    0.00368   -0.04620
105 Li   -0.04828   -0.01700    0.03760
106 Li   -0.00306   -0.00010   -0.00810
107 Li   -0.02098    0.01295    0.03103
108 Li   -0.00942   -0.02331   -0.02506
109 N    -0.00013   -0.00016   -0.00456
110 N    -0.00036    0.00091   -0.01230
111 N     0.00034    0.00056    0.00004
112 N     0.00051   -0.00030   -0.00824
113 N    -0.00054   -0.00036    0.00736
114 N     0.00055   -0.00031    0.00132
115 N    -0.00039   -0.00039   -0.01022
116 N    -0.00025   -0.00049   -0.00006
117 N     0.00045    0.00058   -0.00476
118 N     0.00626    0.02973   -0.04071
119 N     0.00291    0.00301   -0.18578
120 N    -0.00637    0.00864   -0.02384
121 N     0.00511   -0.01325    0.19672
122 N    -0.00809    0.04346    0.35667
123 N    -0.00857   -0.00312   -0.00290
124 N     0.01799   -0.00287   -0.08351
125 N     0.02935   -0.02841    0.30439
126 N    -0.03918   -0.03827    0.14693
127 N     0.02395   -0.04769    0.00301
128 N    -0.01530    0.00546    0.00483
129 N    -0.01310    0.05119    0.00876
130 N    -0.03222   -0.01816   -0.02956
131 N     0.03849   -0.04994    0.01705
132 N     0.02501   -0.02989   -0.00145
133 N    -0.04261    0.05235    0.01827
134 N    -0.02287    0.02981    0.01685
135 N     0.02382    0.00907   -0.00162
136 N     0.00525   -0.00006   -0.00830
137 N    -0.00748   -0.00058    0.00722
138 N     0.00233   -0.04371   -0.03775
139 N     0.05698    0.05563    0.01592
140 N     0.03064   -0.03985   -0.01461
141 N    -0.00897   -0.01615   -0.03419
142 N     0.02603   -0.03651   -0.02242
143 N     0.00109   -0.00228   -0.01755
144 N    -0.04241   -0.05392    0.01075

System changes: positions 

Initializing position-dependent things.

Density initialized from wave functions
                                                  
                                                  
                                                  
                                                  
                                                  
            Li      Li   Li  Li                   
               N   Li   N      Li                 
           Li Li     Li   N Li                    
             Li   N   LiLi    LiLiN               
                LLi      Li                       
            Li  Lii Ni    LiLN  Liii N            
               N      LLi       N                 
           Li Li   LLi     LiLiLi    Li           
                  N     LiN       N               
             LiLiLi  Li  Li   LiLLi               
            Li    LiNi    LiLN  LiLi N            
               NLi      Li      N                 
           Li Li   LLi Li  LiLiLi    Li           
             LiLi N  Li LiN   LiLiN               
                 Li N    Li  N   Li  N            
            Li Li LiLi  LiLiLi  LiLi              
           Li  N   Li   N  Li   N                 
              Li    Li Li    LiLi    Li           
             LiLi N  Li LiN   LiLiN               
                 Li N    Li  N   Li  N            
               Li Li    LiLi    LiLi              
                                                  
                    Li       Li      Li           
                                                  
                                                  
                                                  
                                                  

Positions:
   0 Li     2.587380    5.460170   23.983687    ( 0.0000,  0.0000,  0.0000)
   1 Li     1.717695    0.991763    8.714294    ( 0.0000,  0.0000,  0.0000)
   2 Li     5.153197    0.991763    8.714294    ( 0.0000,  0.0000,  0.0000)
   3 Li     8.588596    0.991763    8.714294    ( 0.0000,  0.0000,  0.0000)
   4 Li    -0.000071    3.967140    8.714294    ( 0.0000,  0.0000,  0.0000)
   5 Li     3.435431    3.967140    8.714294    ( 0.0000,  0.0000,  0.0000)
   6 Li     6.870830    3.967140    8.714294    ( 0.0000,  0.0000,  0.0000)
   7 Li    -1.717786    6.942428    8.714294    ( 0.0000,  0.0000,  0.0000)
   8 Li     1.717717    6.942428    8.714294    ( 0.0000,  0.0000,  0.0000)
   9 Li     5.153115    6.942428    8.714294    ( 0.0000,  0.0000,  0.0000)
  10 Li     0.000000    0.000000   10.653504    ( 0.0000,  0.0000,  0.0000)
  11 Li     3.435502    0.000000   10.653504    ( 0.0000,  0.0000,  0.0000)
  12 Li     6.870901    0.000000   10.653504    ( 0.0000,  0.0000,  0.0000)
  13 Li    -0.000010    1.983525   10.653504    ( 0.0000,  0.0000,  0.0000)
  14 Li     3.435389    1.983525   10.653504    ( 0.0000,  0.0000,  0.0000)
  15 Li     6.870891    1.983525   10.653504    ( 0.0000,  0.0000,  0.0000)
  16 Li    -1.717766    2.975377   10.653504    ( 0.0000,  0.0000,  0.0000)
  17 Li     1.717736    2.975377   10.653504    ( 0.0000,  0.0000,  0.0000)
  18 Li     5.153135    2.975377   10.653504    ( 0.0000,  0.0000,  0.0000)
  19 Li    -1.717776    4.958903   10.653504    ( 0.0000,  0.0000,  0.0000)
  20 Li     1.717623    4.958903   10.653504    ( 0.0000,  0.0000,  0.0000)
  21 Li     5.153125    4.958903   10.653504    ( 0.0000,  0.0000,  0.0000)
  22 Li    -3.435480    5.950666   10.653504    ( 0.0000,  0.0000,  0.0000)
  23 Li     0.000022    5.950666   10.653504    ( 0.0000,  0.0000,  0.0000)
  24 Li     3.435421    5.950666   10.653504    ( 0.0000,  0.0000,  0.0000)
  25 Li    -3.435490    7.934191   10.653504    ( 0.0000,  0.0000,  0.0000)
  26 Li    -0.000091    7.934191   10.653504    ( 0.0000,  0.0000,  0.0000)
  27 Li     3.435411    7.934191   10.653504    ( 0.0000,  0.0000,  0.0000)
  28 Li     1.717695    0.991763   12.627088    ( 0.0000,  0.0000,  0.0000)
  29 Li     5.153197    0.991763   12.627088    ( 0.0000,  0.0000,  0.0000)
  30 Li     8.588596    0.991763   12.627088    ( 0.0000,  0.0000,  0.0000)
  31 Li    -0.000071    3.967140   12.627088    ( 0.0000,  0.0000,  0.0000)
  32 Li     3.435431    3.967140   12.627088    ( 0.0000,  0.0000,  0.0000)
  33 Li     6.870830    3.967140   12.627088    ( 0.0000,  0.0000,  0.0000)
  34 Li    -1.717786    6.942428   12.627088    ( 0.0000,  0.0000,  0.0000)
  35 Li     1.717717    6.942428   12.627088    ( 0.0000,  0.0000,  0.0000)
  36 Li     5.153115    6.942428   12.627088    ( 0.0000,  0.0000,  0.0000)
  37 Li     0.000000    0.000000   14.576373    ( 0.0000,  0.0000,  0.0000)
  38 Li     3.435502    0.000000   14.576373    ( 0.0000,  0.0000,  0.0000)
  39 Li     6.870901    0.000000   14.576373    ( 0.0000,  0.0000,  0.0000)
  40 Li    -0.000010    1.983525   14.576373    ( 0.0000,  0.0000,  0.0000)
  41 Li     3.435389    1.983525   14.576373    ( 0.0000,  0.0000,  0.0000)
  42 Li     6.870891    1.983525   14.576373    ( 0.0000,  0.0000,  0.0000)
  43 Li    -1.717766    2.975377   14.576373    ( 0.0000,  0.0000,  0.0000)
  44 Li     1.717736    2.975377   14.576373    ( 0.0000,  0.0000,  0.0000)
  45 Li     5.153135    2.975377   14.576373    ( 0.0000,  0.0000,  0.0000)
  46 Li    -1.717776    4.958903   14.576373    ( 0.0000,  0.0000,  0.0000)
  47 Li     1.717623    4.958903   14.576373    ( 0.0000,  0.0000,  0.0000)
  48 Li     5.153125    4.958903   14.576373    ( 0.0000,  0.0000,  0.0000)
  49 Li    -3.435480    5.950666   14.576373    ( 0.0000,  0.0000,  0.0000)
  50 Li     0.000022    5.950666   14.576373    ( 0.0000,  0.0000,  0.0000)
  51 Li     3.435421    5.950666   14.576373    ( 0.0000,  0.0000,  0.0000)
  52 Li    -3.435490    7.934191   14.576373    ( 0.0000,  0.0000,  0.0000)
  53 Li    -0.000091    7.934191   14.576373    ( 0.0000,  0.0000,  0.0000)
  54 Li     3.435411    7.934191   14.576373    ( 0.0000,  0.0000,  0.0000)
  55 Li     1.730747    1.037631   16.520953    ( 0.0000,  0.0000,  0.0000)
  56 Li     5.163826    0.997987   16.482801    ( 0.0000,  0.0000,  0.0000)
  57 Li     8.574065    1.005866   16.524148    ( 0.0000,  0.0000,  0.0000)
  58 Li    -0.016096    3.942665   16.580779    ( 0.0000,  0.0000,  0.0000)
  59 Li     3.428555    4.009451   16.631620    ( 0.0000,  0.0000,  0.0000)
  60 Li     6.866305    3.958395   16.527672    ( 0.0000,  0.0000,  0.0000)
  61 Li    -1.684870    6.938113   16.513216    ( 0.0000,  0.0000,  0.0000)
  62 Li     1.746185    6.922010   16.615739    ( 0.0000,  0.0000,  0.0000)
  63 Li     5.105181    6.900195   16.572371    ( 0.0000,  0.0000,  0.0000)
  64 Li     0.032531   -0.024814   18.181374    ( 0.0000,  0.0000,  0.0000)
  65 Li     3.419037   -0.003596   18.133714    ( 0.0000,  0.0000,  0.0000)
  66 Li     6.876342   -0.019565   18.264238    ( 0.0000,  0.0000,  0.0000)
  67 Li     0.000798    1.965495   18.669529    ( 0.0000,  0.0000,  0.0000)
  68 Li     3.436899    1.963129   18.709238    ( 0.0000,  0.0000,  0.0000)
  69 Li     6.847622    1.978089   18.582700    ( 0.0000,  0.0000,  0.0000)
  70 Li    -1.728300    2.964169   18.371470    ( 0.0000,  0.0000,  0.0000)
  71 Li     1.719324    3.057348   18.335495    ( 0.0000,  0.0000,  0.0000)
  72 Li     5.132209    3.022290   18.262919    ( 0.0000,  0.0000,  0.0000)
  73 Li    -1.739825    4.979131   18.576931    ( 0.0000,  0.0000,  0.0000)
  74 Li     1.709447    4.955984   19.190962    ( 0.0000,  0.0000,  0.0000)
  75 Li     5.156685    4.986420   18.940186    ( 0.0000,  0.0000,  0.0000)
  76 Li    -3.471177    5.988283   18.209648    ( 0.0000,  0.0000,  0.0000)
  77 Li     0.076137    5.916528   18.303889    ( 0.0000,  0.0000,  0.0000)
  78 Li     3.394541    5.917530   18.451500    ( 0.0000,  0.0000,  0.0000)
  79 Li    -3.383299    7.957557   18.903452    ( 0.0000,  0.0000,  0.0000)
  80 Li    -0.021969    7.946200   18.692476    ( 0.0000,  0.0000,  0.0000)
  81 Li     3.441195    7.933979   18.777402    ( 0.0000,  0.0000,  0.0000)
  82 Li     1.657061    1.256817   20.413581    ( 0.0000,  0.0000,  0.0000)
  83 Li     5.210041    1.014211   20.315267    ( 0.0000,  0.0000,  0.0000)
  84 Li     8.593438    0.897491   20.427214    ( 0.0000,  0.0000,  0.0000)
  85 Li    -0.356674    3.930012   20.598282    ( 0.0000,  0.0000,  0.0000)
  86 Li     3.667018    3.595043   20.768791    ( 0.0000,  0.0000,  0.0000)
  87 Li     6.882449    3.963839   20.426486    ( 0.0000,  0.0000,  0.0000)
  88 Li    -1.469065    6.728333   20.397246    ( 0.0000,  0.0000,  0.0000)
  89 Li     1.599975    7.263145   20.733117    ( 0.0000,  0.0000,  0.0000)
  90 Li     5.159264    7.157555   20.510720    ( 0.0000,  0.0000,  0.0000)
  91 Li     0.062279   -0.012382   22.357205    ( 0.0000,  0.0000,  0.0000)
  92 Li     3.310181   -0.060507   21.719725    ( 0.0000,  0.0000,  0.0000)
  93 Li     6.877971    0.072477   22.793594    ( 0.0000,  0.0000,  0.0000)
  94 Li    -0.033419    2.028925   22.223894    ( 0.0000,  0.0000,  0.0000)
  95 Li     3.439761    1.815179   22.812235    ( 0.0000,  0.0000,  0.0000)
  96 Li     6.938732    2.021221   21.952429    ( 0.0000,  0.0000,  0.0000)
  97 Li    -1.778218    2.842084   23.287042    ( 0.0000,  0.0000,  0.0000)
  98 Li     1.609812    2.949629   23.261760    ( 0.0000,  0.0000,  0.0000)
  99 Li     5.219243    2.950621   22.810514    ( 0.0000,  0.0000,  0.0000)
 100 Li    -1.797417    4.961200   22.611230    ( 0.0000,  0.0000,  0.0000)
 101 Li     1.620659    4.807572   22.027435    ( 0.0000,  0.0000,  0.0000)
 102 Li     5.300028    5.099438   23.235197    ( 0.0000,  0.0000,  0.0000)
 103 Li    -3.473829    6.014569   21.956245    ( 0.0000,  0.0000,  0.0000)
 104 Li     0.039227    5.891979   23.072931    ( 0.0000,  0.0000,  0.0000)
 105 Li     3.590219    5.926744   21.971953    ( 0.0000,  0.0000,  0.0000)
 106 Li    -3.278477    7.899849   23.225264    ( 0.0000,  0.0000,  0.0000)
 107 Li    -0.147895    8.019206   22.755350    ( 0.0000,  0.0000,  0.0000)
 108 Li     3.526066    7.870026   23.096621    ( 0.0000,  0.0000,  0.0000)
 109 N      1.717695    0.991763   10.638094    ( 0.0000,  0.0000,  0.0000)
 110 N      5.153197    0.991763   10.638094    ( 0.0000,  0.0000,  0.0000)
 111 N      8.588596    0.991763   10.638094    ( 0.0000,  0.0000,  0.0000)
 112 N     -0.000071    3.967140   10.638094    ( 0.0000,  0.0000,  0.0000)
 113 N      3.435431    3.967140   10.638094    ( 0.0000,  0.0000,  0.0000)
 114 N      6.870830    3.967140   10.638094    ( 0.0000,  0.0000,  0.0000)
 115 N     -1.717786    6.942428   10.638094    ( 0.0000,  0.0000,  0.0000)
 116 N      1.717717    6.942428   10.638094    ( 0.0000,  0.0000,  0.0000)
 117 N      5.153115    6.942428   10.638094    ( 0.0000,  0.0000,  0.0000)
 118 N      1.717695    0.991763   14.562149    ( 0.0000,  0.0000,  0.0000)
 119 N      5.153197    0.991763   14.562149    ( 0.0000,  0.0000,  0.0000)
 120 N      8.588596    0.991763   14.562149    ( 0.0000,  0.0000,  0.0000)
 121 N     -0.000071    3.967140   14.562149    ( 0.0000,  0.0000,  0.0000)
 122 N      3.435431    3.967140   14.562149    ( 0.0000,  0.0000,  0.0000)
 123 N      6.870830    3.967140   14.562149    ( 0.0000,  0.0000,  0.0000)
 124 N     -1.717786    6.942428   14.562149    ( 0.0000,  0.0000,  0.0000)
 125 N      1.717717    6.942428   14.562149    ( 0.0000,  0.0000,  0.0000)
 126 N      5.153115    6.942428   14.562149    ( 0.0000,  0.0000,  0.0000)
 127 N      1.719273    1.019728   18.448164    ( 0.0000,  0.0000,  0.0000)
 128 N      5.151124    0.998551   18.377423    ( 0.0000,  0.0000,  0.0000)
 129 N      8.589686    0.979600   18.448724    ( 0.0000,  0.0000,  0.0000)
 130 N     -0.026441    3.964235   18.594250    ( 0.0000,  0.0000,  0.0000)
 131 N      3.440943    3.955604   18.702181    ( 0.0000,  0.0000,  0.0000)
 132 N      6.860169    3.980345   18.459758    ( 0.0000,  0.0000,  0.0000)
 133 N     -1.696597    6.931286   18.430164    ( 0.0000,  0.0000,  0.0000)
 134 N      1.711900    6.956826   18.656722    ( 0.0000,  0.0000,  0.0000)
 135 N      5.147406    6.952985   18.547229    ( 0.0000,  0.0000,  0.0000)
 136 N      1.719616    1.021149   22.332604    ( 0.0000,  0.0000,  0.0000)
 137 N      5.157666    0.998512   22.196473    ( 0.0000,  0.0000,  0.0000)
 138 N      8.595856    0.965504   22.362758    ( 0.0000,  0.0000,  0.0000)
 139 N     -0.070258    3.940037   22.588463    ( 0.0000,  0.0000,  0.0000)
 140 N      3.393193    4.021542   22.759213    ( 0.0000,  0.0000,  0.0000)
 141 N      6.851326    3.977701   22.365321    ( 0.0000,  0.0000,  0.0000)
 142 N     -1.708648    6.929721   22.293460    ( 0.0000,  0.0000,  0.0000)
 143 N      1.793637    6.831341   22.686664    ( 0.0000,  0.0000,  0.0000)
 144 N      5.207818    6.959526   22.475377    ( 0.0000,  0.0000,  0.0000)

Unit cell:
           periodic     x           y           z      points  spacing
  1. axis:    yes   10.306300    0.000000    0.000000    54     0.1653
  2. axis:    yes   -5.153194    8.925954    0.000000    54     0.1653
  3. axis:    yes    0.000000    0.000000   29.633400   160     0.1852

  Lengths:  10.306300  10.306700  29.633400
  Angles:   90.000000  90.000000 119.999001

Effective grid spacing dv^(1/3) = 0.1801

                     log10-error:    total        iterations:
           time      wfs    density  energy       fermi  poisson
iter:   1  08:06:15  -3.61         -522.321092    2             
